DF-ISE text

Info {
  version   = 1.0
  type      = xyplot
  datasets  = [
    "time"
    "source OuterVoltage" "source InnerVoltage" "source QuasiFermiPotential" "source DisplacementCurrent" "source eCurrent"
    "source hCurrent" "source TotalCurrent" "source Charge" "gate OuterVoltage" "gate InnerVoltage"
    "gate QuasiFermiPotential" "gate DisplacementCurrent" "gate eCurrent" "gate hCurrent" "gate TotalCurrent"
    "gate Charge" "substrate OuterVoltage" "substrate InnerVoltage" "substrate QuasiFermiPotential" "substrate DisplacementCurrent"
    "substrate eCurrent" "substrate hCurrent" "substrate TotalCurrent" "substrate Charge" "drain OuterVoltage"
    "drain InnerVoltage" "drain QuasiFermiPotential" "drain DisplacementCurrent" "drain eCurrent" "drain hCurrent"
    "drain TotalCurrent" "drain Charge" ]
  functions = [
    Time
    OuterVoltage InnerVoltage QuasiFermiPotential DisplacementCurrent eCurrent
    hCurrent TotalCurrent Charge OuterVoltage InnerVoltage
    QuasiFermiPotential DisplacementCurrent eCurrent hCurrent TotalCurrent
    Charge OuterVoltage InnerVoltage QuasiFermiPotential DisplacementCurrent
    eCurrent hCurrent TotalCurrent Charge OuterVoltage
    InnerVoltage QuasiFermiPotential DisplacementCurrent eCurrent hCurrent
    TotalCurrent Charge ]
}

Data {
      5.00000000000000E-02
      0.00000000000000E+00   0.00000000000000E+00   0.00000000000000E+00   0.00000000000000E+00  -5.36346763679559E-06
     -2.60170722365003E-42  -5.36346763679559E-06   1.87360933029753E-15   4.50000000000000E-01   4.50000000000000E-01
      0.00000000000000E+00   0.00000000000000E+00   0.00000000000000E+00   0.00000000000000E+00   0.00000000000000E+00
     -4.34513008776457E-17  -1.80000000000000E+00  -1.80000000000000E+00   0.00000000000000E+00   0.00000000000000E+00
     -1.40551442242431E-18   2.64820398298867E-42  -1.40551442242431E-18  -3.81333543784473E-15   9.00000000000000E-02
      9.00000000000000E-02   0.00000000000000E+00   0.00000000000000E+00   5.36346763679699E-06  -4.64967593386359E-44
      5.36346763679699E-06   1.98317740842484E-15
      1.00000000000000E-01
      0.00000000000000E+00   0.00000000000000E+00   0.00000000000000E+00   0.00000000000000E+00  -8.11427632252604E-06
     -2.92183964450082E-42  -8.11427632252604E-06   1.86718846562641E-15   4.50000000000000E-01   4.50000000000000E-01
      0.00000000000000E+00   0.00000000000000E+00   0.00000000000000E+00   0.00000000000000E+00   0.00000000000000E+00
     -1.07484099724139E-16  -1.80000000000000E+00  -1.80000000000000E+00   0.00000000000000E+00   0.00000000000000E+00
      1.94480677880946E-17   2.90841360146720E-42   1.94480677880946E-17  -3.84848545507342E-15   1.80000000000000E-01
      1.80000000000000E-01   0.00000000000000E+00   0.00000000000000E+00   8.11427632250659E-06   1.34260430336121E-44
      8.11427632250659E-06   2.08878108917116E-15
      1.50000000000000E-01
      0.00000000000000E+00   0.00000000000000E+00   0.00000000000000E+00   0.00000000000000E+00  -1.11303784765303E-05
     -1.06750655808508E-42  -1.11303784765303E-05   1.86119735051773E-15   4.50000000000000E-01   4.50000000000000E-01
      0.00000000000000E+00   0.00000000000000E+00   0.00000000000000E+00   0.00000000000000E+00   0.00000000000000E+00
     -1.67541026056368E-16  -1.80000000000000E+00  -1.80000000000000E+00   0.00000000000000E+00   0.00000000000000E+00
      8.31445214201863E-18   1.06613851127352E-42   8.31445214201863E-18  -3.88679959724316E-15   2.70000000000000E-01
      2.70000000000000E-01   0.00000000000000E+00   0.00000000000000E+00   1.11303784765220E-05   1.36804681156727E-45
      1.11303784765220E-05   2.19314327278180E-15
      2.00000000000000E-01
      0.00000000000000E+00   0.00000000000000E+00   0.00000000000000E+00   0.00000000000000E+00  -1.44921805505047E-05
     -2.08605966741309E-42  -1.44921805505047E-05   1.85549448185652E-15   4.50000000000000E-01   4.50000000000000E-01
      0.00000000000000E+00   0.00000000000000E+00   0.00000000000000E+00   0.00000000000000E+00   0.00000000000000E+00
     -2.25389583552763E-16  -1.80000000000000E+00  -1.80000000000000E+00   0.00000000000000E+00   0.00000000000000E+00
     -2.00905438672310E-18   2.08563005512540E-42  -2.00905438672310E-18  -3.92552848702197E-15   3.60000000000000E-01
      3.60000000000000E-01   0.00000000000000E+00   0.00000000000000E+00   1.44921805505068E-05   4.29612287688369E-46
      1.44921805505068E-05   2.29542358871821E-15
      2.50000000000000E-01
      0.00000000000000E+00   0.00000000000000E+00   0.00000000000000E+00   0.00000000000000E+00  -1.82176745879417E-05
     -2.45765339519378E-42  -1.82176745879417E-05   1.85000543231156E-15   4.50000000000000E-01   4.50000000000000E-01
      0.00000000000000E+00   0.00000000000000E+00   0.00000000000000E+00   0.00000000000000E+00   0.00000000000000E+00
     -2.81507013705339E-16  -1.80000000000000E+00  -1.80000000000000E+00   0.00000000000000E+00   0.00000000000000E+00
     -2.99855894093669E-18   2.45763773697447E-42  -2.99855894093669E-18  -3.96391787699052E-15   4.50000000000000E-01
      4.50000000000000E-01   0.00000000000000E+00   0.00000000000000E+00   1.82176745879446E-05   1.56582193073995E-47
      1.82176745879446E-05   2.39541945838429E-15
      3.00000000000000E-01
      0.00000000000000E+00   0.00000000000000E+00   0.00000000000000E+00   0.00000000000000E+00  -2.22889539665541E-05
     -8.36225040881208E-43  -2.22889539665541E-05   1.84471338101921E-15   4.50000000000000E-01   4.50000000000000E-01
      0.00000000000000E+00   0.00000000000000E+00   0.00000000000000E+00   0.00000000000000E+00   0.00000000000000E+00
     -3.35982411955721E-16  -1.80000000000000E+00  -1.80000000000000E+00   0.00000000000000E+00   0.00000000000000E+00
      1.05701007508055E-18   8.36224740132312E-43   1.05701007508055E-18  -4.00176477331280E-15   5.40000000000000E-01
      5.40000000000000E-01   0.00000000000000E+00   0.00000000000000E+00   2.22889539665531E-05   3.00748896309264E-49
      2.22889539665531E-05   2.49303380424931E-15
      3.50000000000000E-01
      0.00000000000000E+00   0.00000000000000E+00   0.00000000000000E+00   0.00000000000000E+00  -2.65894705104350E-05
     -1.08004928853488E-42  -2.65894705104350E-05   1.83961749110402E-15   4.50000000000000E-01   4.50000000000000E-01
      0.00000000000000E+00   0.00000000000000E+00   0.00000000000000E+00   0.00000000000000E+00   0.00000000000000E+00
     -3.88765725565167E-16  -1.80000000000000E+00  -1.80000000000000E+00   0.00000000000000E+00   0.00000000000000E+00
     -4.48195459082194E-19   1.08004787069697E-42  -4.48195459082194E-19  -4.03898039971513E-15   6.30000000000000E-01
      6.30000000000000E-01   0.00000000000000E+00   0.00000000000000E+00   2.65894705104355E-05   1.41783791572076E-48
      2.65894705104355E-05   2.58812863417627E-15
      4.00000000000000E-01
      0.00000000000000E+00   0.00000000000000E+00   0.00000000000000E+00   0.00000000000000E+00  -3.10335113366186E-05
     -2.29725550901761E-42  -3.10335113366186E-05   1.83474898635072E-15   4.50000000000000E-01   4.50000000000000E-01
      0.00000000000000E+00   0.00000000000000E+00   0.00000000000000E+00   0.00000000000000E+00   0.00000000000000E+00
     -4.39734147011855E-16  -1.80000000000000E+00  -1.80000000000000E+00   0.00000000000000E+00   0.00000000000000E+00
     -1.63388092946719E-19   2.29725558973457E-42  -1.63388092946719E-19  -4.07549915393324E-15   7.20000000000000E-01
      7.20000000000000E-01   0.00000000000000E+00   0.00000000000000E+00   3.10335113366188E-05  -8.07169633879528E-50
      3.10335113366188E-05   2.68048431459437E-15
      4.50000000000000E-01
      0.00000000000000E+00   0.00000000000000E+00   0.00000000000000E+00   0.00000000000000E+00  -3.55569613680941E-05
     -2.29518735403477E-42  -3.55569613680941E-05   1.83010505306985E-15   4.50000000000000E-01   4.50000000000000E-01
      0.00000000000000E+00   0.00000000000000E+00   0.00000000000000E+00   0.00000000000000E+00   0.00000000000000E+00
     -4.89048321372842E-16  -1.80000000000000E+00  -1.80000000000000E+00   0.00000000000000E+00   0.00000000000000E+00
      9.51030122349250E-18   2.29518737217372E-42   9.51030122349250E-18  -4.11124342348857E-15   8.10000000000000E-01
      8.10000000000000E-01   0.00000000000000E+00   0.00000000000000E+00   3.55569613680846E-05  -1.81389556855878E-50
      3.55569613680846E-05   2.77018669179156E-15
      5.00000000000000E-01
      0.00000000000000E+00   0.00000000000000E+00   0.00000000000000E+00   0.00000000000000E+00  -4.01769506336093E-05
     -2.32592920708745E-42  -4.01769506336093E-05   1.82563111461441E-15   4.50000000000000E-01   4.50000000000000E-01
      0.00000000000000E+00   0.00000000000000E+00   0.00000000000000E+00   0.00000000000000E+00   0.00000000000000E+00
     -5.37212966362843E-16  -1.80000000000000E+00  -1.80000000000000E+00   0.00000000000000E+00   0.00000000000000E+00
      3.41696067113426E-19   2.32592920635838E-42   3.41696067113426E-19  -4.14615266234055E-15   9.00000000000000E-01
      9.00000000000000E-01   0.00000000000000E+00   0.00000000000000E+00   4.01769506336090E-05   7.29068468799735E-52
      4.01769506336090E-05   2.85773451408899E-15
      5.50000000000000E-01
      0.00000000000000E+00   0.00000000000000E+00   0.00000000000000E+00   0.00000000000000E+00  -4.49655506702432E-05
     -2.93848883094879E-42  -4.49655506702432E-05   1.82126902358137E-15   4.50000000000000E-01   4.50000000000000E-01
      0.00000000000000E+00   0.00000000000000E+00   0.00000000000000E+00   0.00000000000000E+00   0.00000000000000E+00
     -5.84647694441856E-16  -1.80000000000000E+00  -1.80000000000000E+00   0.00000000000000E+00   0.00000000000000E+00
     -6.12202381821835E-19   2.93848883047275E-42  -6.12202381821835E-19  -4.18024654889408E-15   9.90000000000000E-01
      9.90000000000000E-01   0.00000000000000E+00   0.00000000000000E+00   4.49655506702439E-05   4.76038552221263E-52
      4.49655506702439E-05   2.94362521975456E-15
      6.00000000000000E-01
      0.00000000000000E+00   0.00000000000000E+00   0.00000000000000E+00   0.00000000000000E+00  -4.99510382372366E-05
     -2.80460502683811E-42  -4.99510382372366E-05   1.81698548588352E-15   4.50000000000000E-01   4.50000000000000E-01
      0.00000000000000E+00   0.00000000000000E+00   0.00000000000000E+00   0.00000000000000E+00   0.00000000000000E+00
     -6.31492077325339E-16  -1.80000000000000E+00  -1.80000000000000E+00   0.00000000000000E+00   0.00000000000000E+00
      7.01926513497287E-19   2.80460502673075E-42   7.01926513497287E-19  -4.21365719536476E-15   1.08000000000000E+00
      1.08000000000000E+00   0.00000000000000E+00   0.00000000000000E+00   4.99510382372359E-05   1.07361998322719E-52
      4.99510382372359E-05   3.02816378680658E-15
      6.50000000000000E-01
      0.00000000000000E+00   0.00000000000000E+00   0.00000000000000E+00   0.00000000000000E+00  -5.51422581763701E-05
     -2.31662769452121E-42  -5.51422581763701E-05   1.81277139310627E-15   4.50000000000000E-01   4.50000000000000E-01
      0.00000000000000E+00   0.00000000000000E+00   0.00000000000000E+00   0.00000000000000E+00   0.00000000000000E+00
     -6.77701549771732E-16  -1.80000000000000E+00  -1.80000000000000E+00   0.00000000000000E+00   0.00000000000000E+00
     -1.16551012926266E-19   2.31662769449349E-42  -1.16551012926266E-19  -4.24651354837349E-15   1.17000000000000E+00
      1.17000000000000E+00   0.00000000000000E+00   0.00000000000000E+00   5.51422581763702E-05   2.77160594253797E-53
      5.51422581763702E-05   3.11144370503894E-15
      7.00000000000000E-01
      0.00000000000000E+00   0.00000000000000E+00   0.00000000000000E+00   0.00000000000000E+00  -6.05232739023111E-05
     -1.65544623454985E-42  -6.05232739023111E-05   1.80862441695253E-15   4.50000000000000E-01   4.50000000000000E-01
      0.00000000000000E+00   0.00000000000000E+00   0.00000000000000E+00   0.00000000000000E+00   0.00000000000000E+00
     -7.23140905067164E-16  -1.80000000000000E+00  -1.80000000000000E+00   0.00000000000000E+00   0.00000000000000E+00
     -1.83114806238304E-18   1.65544623454704E-42  -1.83114806238304E-18  -4.27887346505165E-15   1.26000000000000E+00
      1.26000000000000E+00   0.00000000000000E+00   0.00000000000000E+00   6.05232739023129E-05   2.81097721604058E-54
      6.05232739023129E-05   3.19338995316628E-15
      7.50000000000000E-01
      0.00000000000000E+00   0.00000000000000E+00   0.00000000000000E+00   0.00000000000000E+00  -6.60646066626327E-05
     -2.58793601673589E-42  -6.60646066626327E-05   1.80454534273048E-15   4.50000000000000E-01   4.50000000000000E-01
      0.00000000000000E+00   0.00000000000000E+00   0.00000000000000E+00   0.00000000000000E+00   0.00000000000000E+00
     -7.67606769170665E-16  -1.80000000000000E+00  -1.80000000000000E+00   0.00000000000000E+00   0.00000000000000E+00
     -8.14451173595777E-21   2.58793601673581E-42  -8.14451173595777E-21  -4.31077790067992E-15   1.35000000000000E+00
      1.35000000000000E+00   0.00000000000000E+00   0.00000000000000E+00   6.60646066626327E-05   8.89449260278538E-56
      6.60646066626327E-05   3.27383932712011E-15
      8.00000000000000E-01
      0.00000000000000E+00   0.00000000000000E+00   0.00000000000000E+00   0.00000000000000E+00  -7.17264049274494E-05
     -2.51567228727074E-42  -7.17264049274494E-05   1.80053980699477E-15   4.50000000000000E-01   4.50000000000000E-01
      0.00000000000000E+00   0.00000000000000E+00   0.00000000000000E+00   0.00000000000000E+00   0.00000000000000E+00
     -8.10845879256156E-16  -1.80000000000000E+00  -1.80000000000000E+00   0.00000000000000E+00   0.00000000000000E+00
     -1.01369124221188E-18   2.51567228727070E-42  -1.01369124221188E-18  -4.34228031142606E-15   1.44000000000000E+00
      1.44000000000000E+00   0.00000000000000E+00   0.00000000000000E+00   7.17264049274503E-05   3.94144935843637E-56
      7.17264049274503E-05   3.35258638368745E-15
      8.50000000000000E-01
      0.00000000000000E+00   0.00000000000000E+00   0.00000000000000E+00   0.00000000000000E+00  -7.74676462407649E-05
     -1.71030938379605E-42  -7.74676462407649E-05   1.79661543452747E-15   4.50000000000000E-01   4.50000000000000E-01
      0.00000000000000E+00   0.00000000000000E+00   0.00000000000000E+00   0.00000000000000E+00   0.00000000000000E+00
     -8.52689404221470E-16  -1.80000000000000E+00  -1.80000000000000E+00   0.00000000000000E+00   0.00000000000000E+00
      4.03126748671409E-20   1.71030938379604E-42   4.03126748671409E-20  -4.37342367212774E-15   1.53000000000000E+00
      1.53000000000000E+00   0.00000000000000E+00   0.00000000000000E+00   7.74676462407648E-05   5.48601398442529E-57
      7.74676462407648E-05   3.42949764182174E-15
      9.00000000000000E-01
      0.00000000000000E+00   0.00000000000000E+00   0.00000000000000E+00   0.00000000000000E+00  -8.32620480255013E-05
     -1.98062493025113E-42  -8.32620480255013E-05   1.79277310945469E-15   4.50000000000000E-01   4.50000000000000E-01
      0.00000000000000E+00   0.00000000000000E+00   0.00000000000000E+00   0.00000000000000E+00   0.00000000000000E+00
     -8.93251230789084E-16  -1.80000000000000E+00  -1.80000000000000E+00   0.00000000000000E+00   0.00000000000000E+00
     -1.18398864437625E-18   1.98062493025113E-42  -1.18398864437625E-18  -4.40423232650856E-15   1.62000000000000E+00
      1.62000000000000E+00   0.00000000000000E+00   0.00000000000000E+00   8.32620480255025E-05   7.95606365221484E-58
      8.32620480255025E-05   3.50471044784295E-15
      9.50000000000000E-01
      0.00000000000000E+00   0.00000000000000E+00   0.00000000000000E+00   0.00000000000000E+00  -8.91050629230562E-05
     -2.12804633476434E-42  -8.91050629230562E-05   1.78900623694429E-15   4.50000000000000E-01   4.50000000000000E-01
      0.00000000000000E+00   0.00000000000000E+00   0.00000000000000E+00   0.00000000000000E+00   0.00000000000000E+00
     -9.32890595464130E-16  -1.80000000000000E+00  -1.80000000000000E+00   0.00000000000000E+00   0.00000000000000E+00
     -6.59200328023865E-19   2.12804633476434E-42  -6.59200328023865E-19  -4.43473255801920E-15   1.71000000000000E+00
      1.71000000000000E+00   0.00000000000000E+00   0.00000000000000E+00   8.91050629230568E-05   7.55003213831883E-59
      8.91050629230568E-05   3.57861691653904E-15
      1.00000000000000E+00
      0.00000000000000E+00   0.00000000000000E+00   0.00000000000000E+00   0.00000000000000E+00  -9.50009513066144E-05
     -1.93715161444959E-42  -9.50009513066144E-05   1.78531236036093E-15   4.50000000000000E-01   4.50000000000000E-01
      0.00000000000000E+00   0.00000000000000E+00   0.00000000000000E+00   0.00000000000000E+00   0.00000000000000E+00
     -9.71912977033719E-16  -1.80000000000000E+00  -1.80000000000000E+00   0.00000000000000E+00   0.00000000000000E+00
     -1.96524942502839E-18   1.93715161444959E-42  -1.96524942502839E-18  -4.46496521622437E-15   1.80000000000000E+00
      1.80000000000000E+00   0.00000000000000E+00   0.00000000000000E+00   9.50009513066163E-05   1.42968862120053E-59
      9.50009513066163E-05   3.65156583289717E-15
}
