DF-ISE text

Info {
  version   = 1.0
  type      = xyplot
  datasets  = [
    "time"
    "source OuterVoltage" "source InnerVoltage" "source QuasiFermiPotential" "source DisplacementCurrent" "source eCurrent"
    "source hCurrent" "source TotalCurrent" "source Charge" "gate OuterVoltage" "gate InnerVoltage"
    "gate QuasiFermiPotential" "gate DisplacementCurrent" "gate eCurrent" "gate hCurrent" "gate TotalCurrent"
    "gate Charge" "substrate OuterVoltage" "substrate InnerVoltage" "substrate QuasiFermiPotential" "substrate DisplacementCurrent"
    "substrate eCurrent" "substrate hCurrent" "substrate TotalCurrent" "substrate Charge" "drain OuterVoltage"
    "drain InnerVoltage" "drain QuasiFermiPotential" "drain DisplacementCurrent" "drain eCurrent" "drain hCurrent"
    "drain TotalCurrent" "drain Charge" ]
  functions = [
    Time
    OuterVoltage InnerVoltage QuasiFermiPotential DisplacementCurrent eCurrent
    hCurrent TotalCurrent Charge OuterVoltage InnerVoltage
    QuasiFermiPotential DisplacementCurrent eCurrent hCurrent TotalCurrent
    Charge OuterVoltage InnerVoltage QuasiFermiPotential DisplacementCurrent
    eCurrent hCurrent TotalCurrent Charge OuterVoltage
    InnerVoltage QuasiFermiPotential DisplacementCurrent eCurrent hCurrent
    TotalCurrent Charge ]
}

Data {
      5.00000000000000E-02
      0.00000000000000E+00   0.00000000000000E+00   0.00000000000000E+00   0.00000000000000E+00  -4.17884256982280E-17
     -2.46255846223299E-25  -4.17884259444839E-17   1.29053231209918E-15   0.00000000000000E+00   0.00000000000000E+00
      0.00000000000000E+00   0.00000000000000E+00   0.00000000000000E+00   0.00000000000000E+00   0.00000000000000E+00
      9.65194578559729E-16   0.00000000000000E+00   0.00000000000000E+00   0.00000000000000E+00   0.00000000000000E+00
     -3.79123479043917E-19   2.68991982361113E-25  -3.79123210051934E-19  -3.66685109620168E-15   9.00000000000000E-02
      9.00000000000000E-02   0.00000000000000E+00   0.00000000000000E+00   4.21675491772719E-17  -2.27361361378132E-26
      4.21675491545358E-17   1.41112420554277E-15
      1.00000000000000E-01
      0.00000000000000E+00   0.00000000000000E+00   0.00000000000000E+00   0.00000000000000E+00  -4.26191463934721E-17
     -2.62342879924849E-25  -4.26191466558150E-17   1.29053231209918E-15   0.00000000000000E+00   0.00000000000000E+00
      0.00000000000000E+00   0.00000000000000E+00   0.00000000000000E+00   0.00000000000000E+00   0.00000000000000E+00
      9.10551128855367E-16   0.00000000000000E+00   0.00000000000000E+00   0.00000000000000E+00   0.00000000000000E+00
     -3.80861434578058E-17   2.64340179501314E-25  -3.80861431934656E-17  -3.72854338315888E-15   1.80000000000000E-01
      1.80000000000000E-01   0.00000000000000E+00   0.00000000000000E+00   8.07052898512779E-17  -1.99729957646534E-27
      8.07052898492806E-17   1.52745994220434E-15
      1.50000000000000E-01
      0.00000000000000E+00   0.00000000000000E+00   0.00000000000000E+00   0.00000000000000E+00  -4.26695676964027E-17
     -2.81398081860276E-25  -4.26695679778008E-17   1.29053231209918E-15   0.00000000000000E+00   0.00000000000000E+00
      0.00000000000000E+00   0.00000000000000E+00   0.00000000000000E+00   0.00000000000000E+00   0.00000000000000E+00
      8.57032088474093E-16   0.00000000000000E+00   0.00000000000000E+00   0.00000000000000E+00   0.00000000000000E+00
     -1.40384807037577E-19   2.81071363262988E-25  -1.40384525966214E-19  -3.78810645030940E-15   2.70000000000000E-01
      2.70000000000000E-01   0.00000000000000E+00   0.00000000000000E+00   4.28099525034403E-17   3.26718597287162E-28
      4.28099525037670E-17   1.64054204973612E-15
      2.00000000000000E-01
      0.00000000000000E+00   0.00000000000000E+00   0.00000000000000E+00   0.00000000000000E+00  -4.27267367834890E-17
     -2.46341846188552E-25  -4.27267370298309E-17   1.29053231209918E-15   0.00000000000000E+00   0.00000000000000E+00
      0.00000000000000E+00   0.00000000000000E+00   0.00000000000000E+00   0.00000000000000E+00   0.00000000000000E+00
      8.04643669656583E-16   0.00000000000000E+00   0.00000000000000E+00   0.00000000000000E+00   0.00000000000000E+00
     -3.86337103929348E-19   2.46047187863556E-25  -3.86336857882160E-19  -3.84592597978549E-15   3.60000000000000E-01
      3.60000000000000E-01   0.00000000000000E+00   0.00000000000000E+00   4.31130738874184E-17   2.94658324996470E-28
      4.31130738877131E-17   1.75074999802972E-15
      2.50000000000000E-01
      0.00000000000000E+00   0.00000000000000E+00   0.00000000000000E+00   0.00000000000000E+00  -4.24520911725741E-17
     -2.72071006805663E-25  -4.24520914446451E-17   1.29053231209918E-15   0.00000000000000E+00   0.00000000000000E+00
      0.00000000000000E+00   0.00000000000000E+00   0.00000000000000E+00   0.00000000000000E+00   0.00000000000000E+00
      7.53506545972516E-16   0.00000000000000E+00   0.00000000000000E+00   0.00000000000000E+00   0.00000000000000E+00
     -2.44509710936323E-17   2.71896041337955E-25  -2.44509708217362E-17  -3.90221866252310E-15   4.50000000000000E-01
      4.50000000000000E-01   0.00000000000000E+00   0.00000000000000E+00   6.69030622662063E-17   1.74965467707527E-28
      6.69030622663813E-17   1.85817980445141E-15
      3.00000000000000E-01
      0.00000000000000E+00   0.00000000000000E+00   0.00000000000000E+00   0.00000000000000E+00  -4.28138856497276E-17
     -2.81545048887080E-25  -4.28138859312726E-17   1.29053231209918E-15   0.00000000000000E+00   0.00000000000000E+00
      0.00000000000000E+00   0.00000000000000E+00   0.00000000000000E+00   0.00000000000000E+00   0.00000000000000E+00
      7.03593067049532E-16   0.00000000000000E+00   0.00000000000000E+00   0.00000000000000E+00   0.00000000000000E+00
     -3.88164048374957E-19   2.81446652223816E-25  -3.88163766928305E-19  -3.95713472310637E-15   5.40000000000000E-01
      5.40000000000000E-01   0.00000000000000E+00   0.00000000000000E+00   4.32020496981025E-17   9.83966632638322E-29
      4.32020496982009E-17   1.96300934395766E-15
      3.50000000000000E-01
      0.00000000000000E+00   0.00000000000000E+00   0.00000000000000E+00   0.00000000000000E+00  -4.28558311443371E-17
     -2.57937561809854E-25  -4.28558314022746E-17   1.29053231209918E-15   0.00000000000000E+00   0.00000000000000E+00
      0.00000000000000E+00   0.00000000000000E+00   0.00000000000000E+00   0.00000000000000E+00   0.00000000000000E+00
      6.54736796224485E-16   0.00000000000000E+00   0.00000000000000E+00   0.00000000000000E+00   0.00000000000000E+00
     -3.89904897446000E-19   2.57893838702173E-25  -3.89904639552161E-19  -4.01080708931003E-15   6.30000000000000E-01
      6.30000000000000E-01   0.00000000000000E+00   0.00000000000000E+00   4.32457360417831E-17   4.37231076808111E-29
      4.32457360418268E-17   2.06553798098637E-15
      4.00000000000000E-01
      0.00000000000000E+00   0.00000000000000E+00   0.00000000000000E+00   0.00000000000000E+00  -4.28960787499817E-17
     -2.57140306575396E-25  -4.28960790071220E-17   1.29053231209918E-15   0.00000000000000E+00   0.00000000000000E+00
      0.00000000000000E+00   0.00000000000000E+00   0.00000000000000E+00   0.00000000000000E+00   0.00000000000000E+00
      6.06848291565627E-16   0.00000000000000E+00   0.00000000000000E+00   0.00000000000000E+00   0.00000000000000E+00
     -3.89685856330016E-19   2.57112970172168E-25  -3.89685599217046E-19  -4.06334914282782E-15   7.20000000000000E-01
      7.20000000000000E-01   0.00000000000000E+00   0.00000000000000E+00   4.32857646063117E-17   2.73364032271691E-29
      4.32857646063390E-17   2.16596853916301E-15
      4.50000000000000E-01
      0.00000000000000E+00   0.00000000000000E+00   0.00000000000000E+00   0.00000000000000E+00  -4.29334350512171E-17
     -2.76930023554932E-25  -4.29334353281471E-17   1.29053231209918E-15   0.00000000000000E+00   0.00000000000000E+00
      0.00000000000000E+00   0.00000000000000E+00   0.00000000000000E+00   0.00000000000000E+00   0.00000000000000E+00
      5.59891054482783E-16   0.00000000000000E+00   0.00000000000000E+00   0.00000000000000E+00   0.00000000000000E+00
     -3.92690641803060E-19   2.76911606656602E-25  -3.92690364891453E-19  -4.11486441310697E-15   8.10000000000000E-01
      8.10000000000000E-01   0.00000000000000E+00   0.00000000000000E+00   4.33261256930201E-17   1.84168983292545E-29
      4.33261256930386E-17   2.26444104652501E-15
      5.00000000000000E-01
      0.00000000000000E+00   0.00000000000000E+00   0.00000000000000E+00   0.00000000000000E+00  -4.29705771449417E-17
     -2.53491503215910E-25  -4.29705773984332E-17   1.29053231209918E-15   0.00000000000000E+00   0.00000000000000E+00
      0.00000000000000E+00   0.00000000000000E+00   0.00000000000000E+00   0.00000000000000E+00   0.00000000000000E+00
      5.13757895832727E-16   0.00000000000000E+00   0.00000000000000E+00   0.00000000000000E+00   0.00000000000000E+00
     -3.92738127487258E-19   2.53481285347016E-25  -3.92737874005973E-19  -4.16546725277124E-15   9.00000000000000E-01
      9.00000000000000E-01   0.00000000000000E+00   0.00000000000000E+00   4.33633152724290E-17   1.02178688941898E-29
      4.33633152724392E-17   2.36117704483934E-15
      5.50000000000000E-01
      0.00000000000000E+00   0.00000000000000E+00   0.00000000000000E+00   0.00000000000000E+00  -4.30042909326473E-17
     -2.91705023661243E-25  -4.30042912243524E-17   1.29053231209918E-15   0.00000000000000E+00   0.00000000000000E+00
      0.00000000000000E+00   0.00000000000000E+00   0.00000000000000E+00   0.00000000000000E+00   0.00000000000000E+00
      4.68338639422313E-16   0.00000000000000E+00   0.00000000000000E+00   0.00000000000000E+00   0.00000000000000E+00
     -3.95044345431886E-19   2.91698780791612E-25  -3.95044053733106E-19  -4.21526347320207E-15   9.90000000000000E-01
      9.90000000000000E-01   0.00000000000000E+00   0.00000000000000E+00   4.33993352780792E-17   6.24286963135090E-30
      4.33993352780855E-17   2.45639252168058E-15
      6.00000000000000E-01
      0.00000000000000E+00   0.00000000000000E+00   0.00000000000000E+00   0.00000000000000E+00  -4.30358651722330E-17
     -2.67278521039927E-25  -4.30358654395115E-17   1.29053231209918E-15   0.00000000000000E+00   0.00000000000000E+00
      0.00000000000000E+00   0.00000000000000E+00   0.00000000000000E+00   0.00000000000000E+00   0.00000000000000E+00
      4.23621317508953E-16   0.00000000000000E+00   0.00000000000000E+00   0.00000000000000E+00   0.00000000000000E+00
     -3.98611859701864E-19   2.67275368869229E-25  -3.98611592426495E-19  -4.26432348678112E-15   1.08000000000000E+00
      1.08000000000000E+00   0.00000000000000E+00   0.00000000000000E+00   4.34344770319349E-17   3.15217069790605E-30
      4.34344770319380E-17   2.55016985717299E-15
      6.50000000000000E-01
      0.00000000000000E+00   0.00000000000000E+00   0.00000000000000E+00   0.00000000000000E+00  -4.30733270009303E-17
     -2.73945292035441E-25  -4.30733272748756E-17   1.29053231209918E-15   0.00000000000000E+00   0.00000000000000E+00
      0.00000000000000E+00   0.00000000000000E+00   0.00000000000000E+00   0.00000000000000E+00   0.00000000000000E+00
      3.79673223242266E-16   0.00000000000000E+00   0.00000000000000E+00   0.00000000000000E+00   0.00000000000000E+00
     -3.95502459931947E-19   2.73943404023241E-25  -3.95502185988543E-19  -4.31268807490034E-15   1.17000000000000E+00
      1.17000000000000E+00   0.00000000000000E+00   0.00000000000000E+00   4.34688294608622E-17   1.88801220014033E-30
      4.34688294608641E-17   2.64248253955889E-15
      7.00000000000000E-01
      0.00000000000000E+00   0.00000000000000E+00   0.00000000000000E+00   0.00000000000000E+00  -4.31044079556751E-17
     -2.79745126748808E-25  -4.31044082354202E-17   1.29053231209918E-15   0.00000000000000E+00   0.00000000000000E+00
      0.00000000000000E+00   0.00000000000000E+00   0.00000000000000E+00   0.00000000000000E+00   0.00000000000000E+00
      3.36571599071523E-16   0.00000000000000E+00   0.00000000000000E+00   0.00000000000000E+00   0.00000000000000E+00
     -3.97971642490772E-19   2.79744201381708E-25  -3.97971362746571E-19  -4.36038565749647E-15   1.26000000000000E+00
      1.26000000000000E+00   0.00000000000000E+00   0.00000000000000E+00   4.35023795981659E-17   9.25367100427208E-31
      4.35023795981668E-17   2.73328174632577E-15
      7.50000000000000E-01
      0.00000000000000E+00   0.00000000000000E+00   0.00000000000000E+00   0.00000000000000E+00  -4.31378084240757E-17
     -2.53058044719799E-25  -4.31378086771338E-17   1.29053231209918E-15   0.00000000000000E+00   0.00000000000000E+00
      0.00000000000000E+00   0.00000000000000E+00   0.00000000000000E+00   0.00000000000000E+00   0.00000000000000E+00
      2.94299731677595E-16   0.00000000000000E+00   0.00000000000000E+00   0.00000000000000E+00   0.00000000000000E+00
     -3.97349566431288E-19   2.53057607892119E-25  -3.97349313373680E-19  -4.40744733324533E-15   1.35000000000000E+00
      1.35000000000000E+00   0.00000000000000E+00   0.00000000000000E+00   4.35351579905070E-17   4.36827680982334E-31
      4.35351579905075E-17   2.82261528946856E-15
      8.00000000000000E-01
      0.00000000000000E+00   0.00000000000000E+00   0.00000000000000E+00   0.00000000000000E+00  -4.31695327692441E-17
     -2.65813069665038E-25  -4.31695330350572E-17   1.29053231209918E-15   0.00000000000000E+00   0.00000000000000E+00
      0.00000000000000E+00   0.00000000000000E+00   0.00000000000000E+00   0.00000000000000E+00   0.00000000000000E+00
      2.52685263339213E-16   0.00000000000000E+00   0.00000000000000E+00   0.00000000000000E+00   0.00000000000000E+00
     -3.97765018739063E-19   2.65812634023253E-25  -3.97764752926429E-19  -4.45391347759196E-15   1.44000000000000E+00
      1.44000000000000E+00   0.00000000000000E+00   0.00000000000000E+00   4.35672977879832E-17   4.35641785532776E-31
      4.35672977879836E-17   2.91069590215357E-15
      8.50000000000000E-01
      0.00000000000000E+00   0.00000000000000E+00   0.00000000000000E+00   0.00000000000000E+00  -4.31981742596320E-17
     -2.46589487457201E-25  -4.31981745062214E-17   1.29053231209918E-15   0.00000000000000E+00   0.00000000000000E+00
      0.00000000000000E+00   0.00000000000000E+00   0.00000000000000E+00   0.00000000000000E+00   0.00000000000000E+00
      2.11535675638524E-16   0.00000000000000E+00   0.00000000000000E+00   0.00000000000000E+00   0.00000000000000E+00
     -4.00791678807354E-19   2.46589167767275E-25  -4.00791432218186E-19  -4.49982358456682E-15   1.53000000000000E+00
      1.53000000000000E+00   0.00000000000000E+00   0.00000000000000E+00   4.35989659384393E-17   3.19689925102632E-31
      4.35989659384396E-17   2.99775559682912E-15
      9.00000000000000E-01
      0.00000000000000E+00   0.00000000000000E+00   0.00000000000000E+00   0.00000000000000E+00  -4.32303315207603E-17
     -2.67444432597320E-25  -4.32303317882047E-17   1.29053231209918E-15   0.00000000000000E+00   0.00000000000000E+00
      0.00000000000000E+00   0.00000000000000E+00   0.00000000000000E+00   0.00000000000000E+00   0.00000000000000E+00
      1.70766467185719E-16   0.00000000000000E+00   0.00000000000000E+00   0.00000000000000E+00   0.00000000000000E+00
     -3.99940293753478E-19   2.67444268717918E-25  -3.99940026309209E-19  -4.54520415092408E-15   1.62000000000000E+00
      1.62000000000000E+00   0.00000000000000E+00   0.00000000000000E+00   4.36302718145138E-17   1.63879402201509E-31
      4.36302718145139E-17   3.08390537163918E-15
      9.50000000000000E-01
      0.00000000000000E+00   0.00000000000000E+00   0.00000000000000E+00   0.00000000000000E+00  -4.32602560180371E-17
     -2.95738653073689E-25  -4.32602563137757E-17   1.29053231209918E-15   0.00000000000000E+00   0.00000000000000E+00
      0.00000000000000E+00   0.00000000000000E+00   0.00000000000000E+00   0.00000000000000E+00   0.00000000000000E+00
      1.30381222550193E-16   0.00000000000000E+00   0.00000000000000E+00   0.00000000000000E+00   0.00000000000000E+00
     -4.01017424468126E-19   2.95738566291602E-25  -4.01017128729559E-19  -4.59006463003791E-15   1.71000000000000E+00
      1.71000000000000E+00   0.00000000000000E+00   0.00000000000000E+00   4.36612734425052E-17   8.67820865552145E-32
      4.36612734425053E-17   3.16915109538854E-15
      1.00000000000000E+00
      0.00000000000000E+00   0.00000000000000E+00   0.00000000000000E+00   0.00000000000000E+00  -4.32867509502730E-17
     -2.74500712149648E-25  -4.32867512247737E-17   1.29053231209918E-15   0.00000000000000E+00   0.00000000000000E+00
      0.00000000000000E+00   0.00000000000000E+00   0.00000000000000E+00   0.00000000000000E+00   0.00000000000000E+00
      9.04093757473446E-17   0.00000000000000E+00   0.00000000000000E+00   0.00000000000000E+00   0.00000000000000E+00
     -4.05249922078472E-19   2.74500663737123E-25  -4.05249647577808E-19  -4.63439497865921E-15   1.80000000000000E+00
      1.80000000000000E+00   0.00000000000000E+00   0.00000000000000E+00   4.36920008723515E-17   4.84125247056484E-32
      4.36920008723515E-17   3.25345329081268E-15
}
