DF-ISE text

Info {
  version   = 1.0
  type      = xyplot
  datasets  = [
    "time"
    "source OuterVoltage" "source InnerVoltage" "source QuasiFermiPotential" "source DisplacementCurrent" "source eCurrent"
    "source hCurrent" "source TotalCurrent" "source Charge" "gate OuterVoltage" "gate InnerVoltage"
    "gate QuasiFermiPotential" "gate DisplacementCurrent" "gate eCurrent" "gate hCurrent" "gate TotalCurrent"
    "gate Charge" "substrate OuterVoltage" "substrate InnerVoltage" "substrate QuasiFermiPotential" "substrate DisplacementCurrent"
    "substrate eCurrent" "substrate hCurrent" "substrate TotalCurrent" "substrate Charge" "drain OuterVoltage"
    "drain InnerVoltage" "drain QuasiFermiPotential" "drain DisplacementCurrent" "drain eCurrent" "drain hCurrent"
    "drain TotalCurrent" "drain Charge" ]
  functions = [
    Time
    OuterVoltage InnerVoltage QuasiFermiPotential DisplacementCurrent eCurrent
    hCurrent TotalCurrent Charge OuterVoltage InnerVoltage
    QuasiFermiPotential DisplacementCurrent eCurrent hCurrent TotalCurrent
    Charge OuterVoltage InnerVoltage QuasiFermiPotential DisplacementCurrent
    eCurrent hCurrent TotalCurrent Charge OuterVoltage
    InnerVoltage QuasiFermiPotential DisplacementCurrent eCurrent hCurrent
    TotalCurrent Charge ]
}

Data {
      5.00000000000000E-02
      0.00000000000000E+00   0.00000000000000E+00   0.00000000000000E+00   0.00000000000000E+00  -2.15857354109675E-05
      2.40213758276228E-42  -2.15857354109675E-05   1.75699747061258E-15   1.35000000000000E+00   1.35000000000000E+00
      0.00000000000000E+00   0.00000000000000E+00   0.00000000000000E+00   0.00000000000000E+00   0.00000000000000E+00
      5.13558121698651E-15  -1.80000000000000E+00  -1.80000000000000E+00   0.00000000000000E+00   0.00000000000000E+00
     -7.61907409310225E-18  -2.80137116238309E-42  -7.61907409310225E-18  -8.71132059431095E-15   9.00000000000000E-02
      9.00000000000000E-02   0.00000000000000E+00   0.00000000000000E+00   2.15857354109751E-05   3.99233579620804E-43
      2.15857354109751E-05   1.81874190671185E-15
      1.00000000000000E-01
      0.00000000000000E+00   0.00000000000000E+00   0.00000000000000E+00   0.00000000000000E+00  -3.60792898059639E-05
      2.59360631517544E-42  -3.60792898059639E-05   1.75692223791842E-15   1.35000000000000E+00   1.35000000000000E+00
      0.00000000000000E+00   0.00000000000000E+00   0.00000000000000E+00   0.00000000000000E+00   0.00000000000000E+00
      4.89231023996873E-15  -1.80000000000000E+00  -1.80000000000000E+00   0.00000000000000E+00   0.00000000000000E+00
     -1.21726545361459E-19  -2.62807320571659E-42  -1.21726545361459E-19  -8.52965664029694E-15   1.80000000000000E-01
      1.80000000000000E-01   0.00000000000000E+00   0.00000000000000E+00   3.60792898059640E-05   3.44668905411454E-44
      3.60792898059640E-05   1.88042416240980E-15
      1.50000000000000E-01
      0.00000000000000E+00   0.00000000000000E+00   0.00000000000000E+00   0.00000000000000E+00  -4.45968219505816E-05
      2.89035327747147E-42  -4.45968219505816E-05   1.75686473787015E-15   1.35000000000000E+00   1.35000000000000E+00
      0.00000000000000E+00   0.00000000000000E+00   0.00000000000000E+00   0.00000000000000E+00   0.00000000000000E+00
      4.67661633157622E-15  -1.80000000000000E+00  -1.80000000000000E+00   0.00000000000000E+00   0.00000000000000E+00
     -3.09010994618959E-19  -2.89662895138534E-42  -3.09010994618959E-19  -8.37578963670744E-15   2.70000000000000E-01
      2.70000000000000E-01   0.00000000000000E+00   0.00000000000000E+00   4.45968219505819E-05   6.27567391387444E-45
      4.45968219505819E-05   1.94230856726108E-15
      2.00000000000000E-01
      0.00000000000000E+00   0.00000000000000E+00   0.00000000000000E+00   0.00000000000000E+00  -4.86710584209327E-05
      1.45537838901963E-42  -4.86710584209327E-05   1.75683284157829E-15   1.35000000000000E+00   1.35000000000000E+00
      0.00000000000000E+00   0.00000000000000E+00   0.00000000000000E+00   0.00000000000000E+00   0.00000000000000E+00
      4.49575692628898E-15  -1.80000000000000E+00  -1.80000000000000E+00   0.00000000000000E+00   0.00000000000000E+00
     -5.53421643192816E-16  -1.45671642267447E-42  -5.53421643192816E-16  -8.25723762401217E-15   3.60000000000000E-01
      3.60000000000000E-01   0.00000000000000E+00   0.00000000000000E+00   4.86710584214861E-05   1.33803365483110E-45
      4.86710584214861E-05   2.00464785614490E-15
      2.50000000000000E-01
      0.00000000000000E+00   0.00000000000000E+00   0.00000000000000E+00   0.00000000000000E+00  -5.02251368410068E-05
      2.05669319479135E-42  -5.02251368410068E-05   1.75681959229011E-15   1.35000000000000E+00   1.35000000000000E+00
      0.00000000000000E+00   0.00000000000000E+00   0.00000000000000E+00   0.00000000000000E+00   0.00000000000000E+00
      4.34898242447718E-15  -1.80000000000000E+00  -1.80000000000000E+00   0.00000000000000E+00   0.00000000000000E+00
      3.02803578071191E-18  -2.05680257538583E-42   3.02803578071191E-18  -8.17370206933726E-15   4.50000000000000E-01
      4.50000000000000E-01   0.00000000000000E+00   0.00000000000000E+00   5.02251368410037E-05   1.09380594484249E-46
      5.02251368410037E-05   2.06790005256997E-15
      3.00000000000000E-01
      0.00000000000000E+00   0.00000000000000E+00   0.00000000000000E+00   0.00000000000000E+00  -5.07998807636964E-05
      1.90912045113422E-42  -5.07998807636964E-05   1.75681436606491E-15   1.35000000000000E+00   1.35000000000000E+00
      0.00000000000000E+00   0.00000000000000E+00   0.00000000000000E+00   0.00000000000000E+00   0.00000000000000E+00
      4.22856526451354E-15  -1.80000000000000E+00  -1.80000000000000E+00   0.00000000000000E+00   0.00000000000000E+00
      2.02687406975967E-17  -1.90912936139095E-42   2.02687406975967E-17  -8.11815623885537E-15   5.40000000000000E-01
      5.40000000000000E-01   0.00000000000000E+00   0.00000000000000E+00   5.07998807636761E-05   8.91025672769107E-48
      5.07998807636761E-05   2.13277660827693E-15
      3.50000000000000E-01
      0.00000000000000E+00   0.00000000000000E+00   0.00000000000000E+00   0.00000000000000E+00  -5.11253830331717E-05
      1.85266483364796E-42  -5.11253830331717E-05   1.75681127149453E-15   1.35000000000000E+00   1.35000000000000E+00
      0.00000000000000E+00   0.00000000000000E+00   0.00000000000000E+00   0.00000000000000E+00   0.00000000000000E+00
      4.12335828261668E-15  -1.80000000000000E+00  -1.80000000000000E+00   0.00000000000000E+00   0.00000000000000E+00
      1.67164138865464E-17  -1.85266859220633E-42   1.67164138865464E-17  -8.08000310735945E-15   6.30000000000000E-01
      6.30000000000000E-01   0.00000000000000E+00   0.00000000000000E+00   5.11253830331549E-05   3.75855836512840E-48
      5.11253830331549E-05   2.19983355324824E-15
      4.00000000000000E-01
      0.00000000000000E+00   0.00000000000000E+00   0.00000000000000E+00   0.00000000000000E+00  -5.13842688752116E-05
      1.37259369507836E-42  -5.13842688752116E-05   1.75680875595016E-15   1.35000000000000E+00   1.35000000000000E+00
      0.00000000000000E+00   0.00000000000000E+00   0.00000000000000E+00   0.00000000000000E+00   0.00000000000000E+00
      4.02814565021634E-15  -1.80000000000000E+00  -1.80000000000000E+00   0.00000000000000E+00   0.00000000000000E+00
      4.05943556690849E-18  -1.37259415877645E-42   4.05943556690849E-18  -8.05488181015745E-15   7.20000000000000E-01
      7.20000000000000E-01   0.00000000000000E+00   0.00000000000000E+00   5.13842688752076E-05   4.63698095416300E-49
      5.13842688752076E-05   2.26992740399095E-15
      4.50000000000000E-01
      0.00000000000000E+00   0.00000000000000E+00   0.00000000000000E+00   0.00000000000000E+00  -5.16083976029567E-05
      2.71165769464367E-42  -5.16083976029567E-05   1.75680654398679E-15   1.35000000000000E+00   1.35000000000000E+00
      0.00000000000000E+00   0.00000000000000E+00   0.00000000000000E+00   0.00000000000000E+00   0.00000000000000E+00
      3.94212525957822E-15  -1.80000000000000E+00  -1.80000000000000E+00   0.00000000000000E+00   0.00000000000000E+00
      1.17456500940401E-17  -2.71165775734590E-42   1.17456500940401E-17  -8.04330594802800E-15   8.10000000000000E-01
      8.10000000000000E-01   0.00000000000000E+00   0.00000000000000E+00   5.16083976029449E-05   6.27022329026439E-50
      5.16083976029449E-05   2.34437414446299E-15
      5.00000000000000E-01
      0.00000000000000E+00   0.00000000000000E+00   0.00000000000000E+00   0.00000000000000E+00  -5.18120662108859E-05
      2.45191738233643E-42  -5.18120662108859E-05   1.75680450971725E-15   1.35000000000000E+00   1.35000000000000E+00
      0.00000000000000E+00   0.00000000000000E+00   0.00000000000000E+00   0.00000000000000E+00   0.00000000000000E+00
      3.86507446088379E-15  -1.80000000000000E+00  -1.80000000000000E+00   0.00000000000000E+00   0.00000000000000E+00
     -6.43993535224643E-18  -2.45191739294220E-42  -6.43993535224643E-18  -8.04648624823501E-15   9.00000000000000E-01
      9.00000000000000E-01   0.00000000000000E+00   0.00000000000000E+00   5.18120662108923E-05   1.06057662538113E-50
      5.18120662108923E-05   2.42460727763397E-15
      5.50000000000000E-01
      0.00000000000000E+00   0.00000000000000E+00   0.00000000000000E+00   0.00000000000000E+00  -5.20028984900633E-05
      1.67941423362086E-42  -5.20028984900633E-05   1.75680258443924E-15   1.35000000000000E+00   1.35000000000000E+00
      0.00000000000000E+00   0.00000000000000E+00   0.00000000000000E+00   0.00000000000000E+00   0.00000000000000E+00
      3.79613267923189E-15  -1.80000000000000E+00  -1.80000000000000E+00   0.00000000000000E+00   0.00000000000000E+00
      2.82428715970122E-18  -1.67941423424022E-42   2.82428715970122E-18  -8.06425905695985E-15   9.90000000000000E-01
      9.90000000000000E-01   0.00000000000000E+00   0.00000000000000E+00   5.20028984900605E-05   6.19360018430108E-52
      5.20028984900605E-05   2.51132379328873E-15
      6.00000000000000E-01
      0.00000000000000E+00   0.00000000000000E+00   0.00000000000000E+00   0.00000000000000E+00  -5.21849073593227E-05
      2.38219241751908E-42  -5.21849073593227E-05   1.75680073184098E-15   1.35000000000000E+00   1.35000000000000E+00
      0.00000000000000E+00   0.00000000000000E+00   0.00000000000000E+00   0.00000000000000E+00   0.00000000000000E+00
      3.73271177614005E-15  -1.80000000000000E+00  -1.80000000000000E+00   0.00000000000000E+00   0.00000000000000E+00
     -7.28278247830727E-13  -2.38219241773053E-42  -7.28278247830727E-13  -8.09166901565371E-15   1.08000000000000E+00
      1.08000000000000E+00   0.00000000000000E+00   0.00000000000000E+00   5.21849080876009E-05   2.11448173217926E-52
      5.21849080876009E-05   2.60215650767268E-15
      6.50000000000000E-01
      0.00000000000000E+00   0.00000000000000E+00   0.00000000000000E+00   0.00000000000000E+00  -5.23593137315089E-05
      3.15410906524646E-42  -5.23593137315089E-05   1.75679894177904E-15   1.35000000000000E+00   1.35000000000000E+00
      0.00000000000000E+00   0.00000000000000E+00   0.00000000000000E+00   0.00000000000000E+00   0.00000000000000E+00
      3.67218101018478E-15  -1.80000000000000E+00  -1.80000000000000E+00   0.00000000000000E+00   0.00000000000000E+00
      2.78702559435009E-15  -3.15410906527642E-42   2.78702559435009E-15  -8.12262478073969E-15   1.17000000000000E+00
      1.17000000000000E+00   0.00000000000000E+00   0.00000000000000E+00   5.23593137287218E-05   2.99586212672267E-53
      5.23593137287218E-05   2.69364482877588E-15
      7.00000000000000E-01
      0.00000000000000E+00   0.00000000000000E+00   0.00000000000000E+00   0.00000000000000E+00  -5.25263409385025E-05
      2.83921594411820E-42  -5.25263409385025E-05   1.75679721357638E-15   1.35000000000000E+00   1.35000000000000E+00
      0.00000000000000E+00   0.00000000000000E+00   0.00000000000000E+00   0.00000000000000E+00   0.00000000000000E+00
      3.61342830643091E-15  -1.80000000000000E+00  -1.80000000000000E+00   0.00000000000000E+00   0.00000000000000E+00
      1.44027476543688E-14  -2.83921594412051E-42   1.44027476543688E-14  -8.15434753525154E-15   1.26000000000000E+00
      1.26000000000000E+00   0.00000000000000E+00   0.00000000000000E+00   5.25263409240997E-05   2.31139012551252E-54
      5.25263409240997E-05   2.78412201524426E-15
      7.50000000000000E-01
      0.00000000000000E+00   0.00000000000000E+00   0.00000000000000E+00   0.00000000000000E+00  -5.26869601108269E-05
      3.07439952725154E-42  -5.26869601108269E-05   1.75679553890277E-15   1.35000000000000E+00   1.35000000000000E+00
      0.00000000000000E+00   0.00000000000000E+00   0.00000000000000E+00   0.00000000000000E+00   0.00000000000000E+00
      3.55602916347059E-15  -1.80000000000000E+00  -1.80000000000000E+00   0.00000000000000E+00   0.00000000000000E+00
      6.78721088189960E-18  -3.07439952725210E-42   6.78721088189960E-18  -8.18605062842123E-15   1.35000000000000E+00
      1.35000000000000E+00   0.00000000000000E+00   0.00000000000000E+00   5.26869601108201E-05   5.61106038811986E-55
      5.26869601108201E-05   2.87322592604788E-15
      8.00000000000000E-01
      0.00000000000000E+00   0.00000000000000E+00   0.00000000000000E+00   0.00000000000000E+00  -5.28424213120007E-05
      2.31217783771393E-42  -5.28424213120007E-05   1.75679390629143E-15   1.35000000000000E+00   1.35000000000000E+00
      0.00000000000000E+00   0.00000000000000E+00   0.00000000000000E+00   0.00000000000000E+00   0.00000000000000E+00
      3.49980926499846E-15  -1.80000000000000E+00  -1.80000000000000E+00   0.00000000000000E+00   0.00000000000000E+00
      1.23061468523220E-16  -2.31217783771396E-42   1.23061468523220E-16  -8.21755455678303E-15   1.44000000000000E+00
      1.44000000000000E+00   0.00000000000000E+00   0.00000000000000E+00   5.28424213118776E-05   3.03735013566252E-56
      5.28424213118776E-05   2.96095138549314E-15
      8.50000000000000E-01
      0.00000000000000E+00   0.00000000000000E+00   0.00000000000000E+00   0.00000000000000E+00  -5.29936486255411E-05
      3.04143479227578E-42  -5.29936486255411E-05   1.75679230725068E-15   1.35000000000000E+00   1.35000000000000E+00
      0.00000000000000E+00   0.00000000000000E+00   0.00000000000000E+00   0.00000000000000E+00   0.00000000000000E+00
      3.44466951511831E-15  -1.80000000000000E+00  -1.80000000000000E+00   0.00000000000000E+00   0.00000000000000E+00
      5.89385065162446E-17  -3.04143479227578E-42   5.89385065162446E-17  -8.24882251320893E-15   1.53000000000000E+00
      1.53000000000000E+00   0.00000000000000E+00   0.00000000000000E+00   5.29936486254822E-05   3.18579445115129E-57
      5.29936486254822E-05   3.04736069083995E-15
      9.00000000000000E-01
      0.00000000000000E+00   0.00000000000000E+00   0.00000000000000E+00   0.00000000000000E+00  -5.31410343817066E-05
      1.88745001807064E-42  -5.31410343817066E-05   1.75679073839852E-15   1.35000000000000E+00   1.35000000000000E+00
      0.00000000000000E+00   0.00000000000000E+00   0.00000000000000E+00   0.00000000000000E+00   0.00000000000000E+00
      3.39050508139060E-15  -1.80000000000000E+00  -1.80000000000000E+00   0.00000000000000E+00   0.00000000000000E+00
      9.21410215051182E-18  -1.88745001807064E-42   9.21410215051182E-18  -8.27991390301798E-15   1.62000000000000E+00
      1.62000000000000E+00   0.00000000000000E+00   0.00000000000000E+00   5.31410343816974E-05   2.82047914232777E-58
      5.31410343816974E-05   3.13261808322887E-15
      9.50000000000000E-01
      0.00000000000000E+00   0.00000000000000E+00   0.00000000000000E+00   0.00000000000000E+00  -5.32851741681036E-05
      2.33533489948643E-42  -5.32851741681036E-05   1.75678919427959E-15   1.35000000000000E+00   1.35000000000000E+00
      0.00000000000000E+00   0.00000000000000E+00   0.00000000000000E+00   0.00000000000000E+00   0.00000000000000E+00
      3.33715477721806E-15  -1.80000000000000E+00  -1.80000000000000E+00   0.00000000000000E+00   0.00000000000000E+00
      3.01016935016668E-18  -2.33533489948643E-42   3.01016935016668E-18  -8.31076967230761E-15   1.71000000000000E+00
      1.71000000000000E+00   0.00000000000000E+00   0.00000000000000E+00   5.32851741681006E-05   6.71560246101694E-59
      5.32851741681006E-05   3.21682570080996E-15
      1.00000000000000E+00
      0.00000000000000E+00   0.00000000000000E+00   0.00000000000000E+00   0.00000000000000E+00  -5.34260516296154E-05
      2.62554319471085E-42  -5.34260516296154E-05   1.75678767557348E-15   1.35000000000000E+00   1.35000000000000E+00
      0.00000000000000E+00   0.00000000000000E+00   0.00000000000000E+00   0.00000000000000E+00   0.00000000000000E+00
      3.28470156848642E-15  -1.80000000000000E+00  -1.80000000000000E+00   0.00000000000000E+00   0.00000000000000E+00
     -2.99072904238142E-18  -2.62554319471085E-42  -2.99072904238142E-18  -8.34139641065357E-15   1.80000000000000E+00
      1.80000000000000E+00   0.00000000000000E+00   0.00000000000000E+00   5.34260516296183E-05   7.64029649771249E-60
      5.34260516296183E-05   3.29990716659368E-15
}
