DF-ISE text

Info {
  version   = 1.0
  type      = xyplot
  datasets  = [
    "time"
    "source OuterVoltage" "source InnerVoltage" "source QuasiFermiPotential" "source DisplacementCurrent" "source eCurrent"
    "source hCurrent" "source TotalCurrent" "source Charge" "gate OuterVoltage" "gate InnerVoltage"
    "gate QuasiFermiPotential" "gate DisplacementCurrent" "gate eCurrent" "gate hCurrent" "gate TotalCurrent"
    "gate Charge" "substrate OuterVoltage" "substrate InnerVoltage" "substrate QuasiFermiPotential" "substrate DisplacementCurrent"
    "substrate eCurrent" "substrate hCurrent" "substrate TotalCurrent" "substrate Charge" "drain OuterVoltage"
    "drain InnerVoltage" "drain QuasiFermiPotential" "drain DisplacementCurrent" "drain eCurrent" "drain hCurrent"
    "drain TotalCurrent" "drain Charge" ]
  functions = [
    Time
    OuterVoltage InnerVoltage QuasiFermiPotential DisplacementCurrent eCurrent
    hCurrent TotalCurrent Charge OuterVoltage InnerVoltage
    QuasiFermiPotential DisplacementCurrent eCurrent hCurrent TotalCurrent
    Charge OuterVoltage InnerVoltage QuasiFermiPotential DisplacementCurrent
    eCurrent hCurrent TotalCurrent Charge OuterVoltage
    InnerVoltage QuasiFermiPotential DisplacementCurrent eCurrent hCurrent
    TotalCurrent Charge ]
}

Data {
      5.00000000000000E-02
      0.00000000000000E+00   0.00000000000000E+00   0.00000000000000E+00   0.00000000000000E+00  -1.83820595294313E-04
     -2.05497944694538E-42  -1.83820595294313E-04   1.47740544481216E-15   1.80000000000000E+00   1.80000000000000E+00
      0.00000000000000E+00   0.00000000000000E+00   0.00000000000000E+00   0.00000000000000E+00   0.00000000000000E+00
      3.09705553395175E-15  -1.80000000000000E+00  -1.80000000000000E+00   0.00000000000000E+00   0.00000000000000E+00
      1.37785574270160E-16   2.10713284541383E-42   1.37785574270160E-16  -6.11468105563271E-15   9.00000000000000E-02
      9.00000000000000E-02   0.00000000000000E+00   0.00000000000000E+00   1.83820595294175E-04  -5.21533984684565E-44
      1.83820595294175E-04   1.54022007686880E-15
      1.00000000000000E-01
      0.00000000000000E+00   0.00000000000000E+00   0.00000000000000E+00   0.00000000000000E+00  -3.40739858380397E-04
     -1.67084984826626E-42  -3.40739858380397E-04   1.47563052863311E-15   1.80000000000000E+00   1.80000000000000E+00
      0.00000000000000E+00   0.00000000000000E+00   0.00000000000000E+00   0.00000000000000E+00   0.00000000000000E+00
      2.98746714235341E-15  -1.80000000000000E+00  -1.80000000000000E+00   0.00000000000000E+00   0.00000000000000E+00
     -2.75903034020149E-18   1.67687364383563E-42  -2.75903034020149E-18  -6.06612068376751E-15   1.80000000000000E-01
      1.80000000000000E-01   0.00000000000000E+00   0.00000000000000E+00   3.40739858380399E-04  -6.02379556937541E-45
      3.40739858380399E-04   1.60302301278099E-15
      1.50000000000000E-01
      0.00000000000000E+00   0.00000000000000E+00   0.00000000000000E+00   0.00000000000000E+00  -4.70789016383480E-04
     -6.76389353113816E-43  -4.70789016383480E-04   1.47283019412099E-15   1.80000000000000E+00   1.80000000000000E+00
      0.00000000000000E+00   0.00000000000000E+00   0.00000000000000E+00   0.00000000000000E+00   0.00000000000000E+00
      2.87938026343281E-15  -1.80000000000000E+00  -1.80000000000000E+00   0.00000000000000E+00   0.00000000000000E+00
     -1.51577380963630E-18   6.72843006610772E-43  -1.51577380963630E-18  -6.01876558993761E-15   2.70000000000000E-01
      2.70000000000000E-01   0.00000000000000E+00   0.00000000000000E+00   4.70789016383482E-04   3.54634650304390E-45
      4.70789016383482E-04   1.66655513238381E-15
      2.00000000000000E-01
      0.00000000000000E+00   0.00000000000000E+00   0.00000000000000E+00   0.00000000000000E+00  -5.75391656784456E-04
     -2.22841399158379E-42  -5.75391656784456E-04   1.46905920777940E-15   1.80000000000000E+00   1.80000000000000E+00
      0.00000000000000E+00   0.00000000000000E+00   0.00000000000000E+00   0.00000000000000E+00   0.00000000000000E+00
      2.77323680282377E-15  -1.80000000000000E+00  -1.80000000000000E+00   0.00000000000000E+00   0.00000000000000E+00
     -2.76722759503949E-17   2.22810289264118E-42  -2.76722759503949E-17  -5.97314301874347E-15   3.60000000000000E-01
      3.60000000000000E-01   0.00000000000000E+00   0.00000000000000E+00   5.75391656784483E-04   3.11098942604627E-46
      5.75391656784483E-04   1.73084700814030E-15
      2.50000000000000E-01
      0.00000000000000E+00   0.00000000000000E+00   0.00000000000000E+00   0.00000000000000E+00  -6.56888680002569E-04
     -2.33502725048115E-42  -6.56888680002569E-04   1.46446096200215E-15   1.80000000000000E+00   1.80000000000000E+00
      0.00000000000000E+00   0.00000000000000E+00   0.00000000000000E+00   0.00000000000000E+00   0.00000000000000E+00
      2.66959550906190E-15  -1.80000000000000E+00  -1.80000000000000E+00   0.00000000000000E+00   0.00000000000000E+00
      6.26504540908387E-18   2.33504817377251E-42   6.26504540908387E-18  -5.92993424016260E-15   4.50000000000000E-01
      4.50000000000000E-01   0.00000000000000E+00   0.00000000000000E+00   6.56888680002563E-04  -2.09232913570047E-47
      6.56888680002563E-04   1.79587776909855E-15
      3.00000000000000E-01
      0.00000000000000E+00   0.00000000000000E+00   0.00000000000000E+00   0.00000000000000E+00  -7.18404299505893E-04
     -2.15757957596618E-42  -7.18404299505893E-04   1.45926724020544E-15   1.80000000000000E+00   1.80000000000000E+00
      0.00000000000000E+00   0.00000000000000E+00   0.00000000000000E+00   0.00000000000000E+00   0.00000000000000E+00
      2.56910846252445E-15  -1.80000000000000E+00  -1.80000000000000E+00   0.00000000000000E+00   0.00000000000000E+00
     -4.09122770886845E-19   2.15758699352033E-42  -4.09122770886845E-19  -5.88992875896237E-15   5.40000000000000E-01
      5.40000000000000E-01   0.00000000000000E+00   0.00000000000000E+00   7.18404299505893E-04  -7.41755415168971E-48
      7.18404299505893E-04   1.86155305623248E-15
      3.50000000000000E-01
      0.00000000000000E+00   0.00000000000000E+00   0.00000000000000E+00   0.00000000000000E+00  -7.63689891820753E-04
     -1.44827570326633E-42  -7.63689891820753E-04   1.45376287075531E-15   1.80000000000000E+00   1.80000000000000E+00
      0.00000000000000E+00   0.00000000000000E+00   0.00000000000000E+00   0.00000000000000E+00   0.00000000000000E+00
      2.47241809237895E-15  -1.80000000000000E+00  -1.80000000000000E+00   0.00000000000000E+00   0.00000000000000E+00
      5.80654673864389E-19   1.44827618756368E-42   5.80654673864389E-19  -5.85385238073781E-15   6.30000000000000E-01
      6.30000000000000E-01   0.00000000000000E+00   0.00000000000000E+00   7.63689891820751E-04  -4.84297346408290E-49
      7.63689891820751E-04   1.92767141760355E-15
      4.00000000000000E-01
      0.00000000000000E+00   0.00000000000000E+00   0.00000000000000E+00   0.00000000000000E+00  -7.96836475845613E-04
     -1.57710250406564E-42  -7.96836475845613E-04   1.44821153787438E-15   1.80000000000000E+00   1.80000000000000E+00
      0.00000000000000E+00   0.00000000000000E+00   0.00000000000000E+00   0.00000000000000E+00   0.00000000000000E+00
      2.37991591520143E-15  -1.80000000000000E+00  -1.80000000000000E+00   0.00000000000000E+00   0.00000000000000E+00
     -1.38281648285150E-17   1.57710270049156E-42  -1.38281648285150E-17  -5.82205034485010E-15   7.20000000000000E-01
      7.20000000000000E-01   0.00000000000000E+00   0.00000000000000E+00   7.96836475845627E-04  -1.96425920801897E-49
      7.96836475845627E-04   1.99392289177429E-15
      4.50000000000000E-01
      0.00000000000000E+00   0.00000000000000E+00   0.00000000000000E+00   0.00000000000000E+00  -8.21621519165118E-04
     -2.28582387775070E-42  -8.21621519165118E-04   1.44278999534809E-15   1.80000000000000E+00   1.80000000000000E+00
      0.00000000000000E+00   0.00000000000000E+00   0.00000000000000E+00   0.00000000000000E+00   0.00000000000000E+00
      2.29164098281072E-15  -1.80000000000000E+00  -1.80000000000000E+00   0.00000000000000E+00   0.00000000000000E+00
      4.82877108266746E-18   2.28582383790298E-42   4.82877108266746E-18  -5.79439578676150E-15   8.10000000000000E-01
      8.10000000000000E-01   0.00000000000000E+00   0.00000000000000E+00   8.21621519165113E-04   3.98477172877041E-50
      8.21621519165113E-04   2.05996480860269E-15
      5.00000000000000E-01
      0.00000000000000E+00   0.00000000000000E+00   0.00000000000000E+00   0.00000000000000E+00  -8.40982110773221E-04
     -1.22865117867748E-42  -8.40982110773221E-04   1.43757823338087E-15   1.80000000000000E+00   1.80000000000000E+00
      0.00000000000000E+00   0.00000000000000E+00   0.00000000000000E+00   0.00000000000000E+00   0.00000000000000E+00
      2.20734296194357E-15  -1.80000000000000E+00  -1.80000000000000E+00   0.00000000000000E+00   0.00000000000000E+00
     -1.18185312433513E-17   1.22865117531475E-42  -1.18185312433513E-17  -5.77046648072748E-15   9.00000000000000E-01
      9.00000000000000E-01   0.00000000000000E+00   0.00000000000000E+00   8.40982110773233E-04   3.36272827308602E-51
      8.40982110773233E-04   2.12554528540304E-15
      5.50000000000000E-01
      0.00000000000000E+00   0.00000000000000E+00   0.00000000000000E+00   0.00000000000000E+00  -8.56824638757956E-04
     -1.97432310021110E-42  -8.56824638757956E-04   1.43259831145121E-15   1.80000000000000E+00   1.80000000000000E+00
      0.00000000000000E+00   0.00000000000000E+00   0.00000000000000E+00   0.00000000000000E+00   0.00000000000000E+00
      2.12673655885793E-15  -1.80000000000000E+00  -1.80000000000000E+00   0.00000000000000E+00   0.00000000000000E+00
      5.97438821881005E-18   1.97432309931389E-42   5.97438821881005E-18  -5.74995819363117E-15   9.90000000000000E-01
      9.90000000000000E-01   0.00000000000000E+00   0.00000000000000E+00   8.56824638757950E-04   8.97209025583303E-52
      8.56824638757950E-04   2.19062332332203E-15
      6.00000000000000E-01
      0.00000000000000E+00   0.00000000000000E+00   0.00000000000000E+00   0.00000000000000E+00  -8.70327441569754E-04
     -1.57419865946159E-42  -8.70327441569754E-04   1.42784271886130E-15   1.80000000000000E+00   1.80000000000000E+00
      0.00000000000000E+00   0.00000000000000E+00   0.00000000000000E+00   0.00000000000000E+00   0.00000000000000E+00
      2.04957095098770E-15  -1.80000000000000E+00  -1.80000000000000E+00   0.00000000000000E+00   0.00000000000000E+00
     -4.86005440104941E-19   1.57419865918527E-42  -4.86005440104941E-19  -5.73283814162733E-15   1.08000000000000E+00
      1.08000000000000E+00   0.00000000000000E+00   0.00000000000000E+00   8.70327441569755E-04   2.76322694244146E-52
      8.70327441569755E-04   2.25542447177833E-15
      6.50000000000000E-01
      0.00000000000000E+00   0.00000000000000E+00   0.00000000000000E+00   0.00000000000000E+00  -8.82218231284194E-04
     -1.98610818995607E-42  -8.82218231284194E-04   1.42328735442262E-15   1.80000000000000E+00   1.80000000000000E+00
      0.00000000000000E+00   0.00000000000000E+00   0.00000000000000E+00   0.00000000000000E+00   0.00000000000000E+00
      1.97567032049343E-15  -1.80000000000000E+00  -1.80000000000000E+00   0.00000000000000E+00   0.00000000000000E+00
      7.36964282315135E-17   1.98610818993716E-42   7.36964282315135E-17  -5.71930946444469E-15   1.17000000000000E+00
      1.17000000000000E+00   0.00000000000000E+00   0.00000000000000E+00   8.82218231284120E-04   1.89102497796056E-53
      8.82218231284120E-04   2.32035178952865E-15
      7.00000000000000E-01
      0.00000000000000E+00   0.00000000000000E+00   0.00000000000000E+00   0.00000000000000E+00  -8.92981494519110E-04
     -1.87040502592050E-42  -8.92981494519110E-04   1.41890136718690E-15   1.80000000000000E+00   1.80000000000000E+00
      0.00000000000000E+00   0.00000000000000E+00   0.00000000000000E+00   0.00000000000000E+00   0.00000000000000E+00
      1.90500646013998E-15  -1.80000000000000E+00  -1.80000000000000E+00   0.00000000000000E+00   0.00000000000000E+00
      1.77851771688005E-15   1.87040502591973E-42   1.77851771688005E-15  -5.70986483254205E-15   1.26000000000000E+00
      1.26000000000000E+00   0.00000000000000E+00   0.00000000000000E+00   8.92981494517332E-04   7.76622558396689E-55
      8.92981494517332E-04   2.38595700521518E-15
      7.50000000000000E-01
      0.00000000000000E+00   0.00000000000000E+00   0.00000000000000E+00   0.00000000000000E+00  -9.02863736757360E-04
     -2.05624822270811E-42  -9.02863736757360E-04   1.41467583926631E-15   1.80000000000000E+00   1.80000000000000E+00
      0.00000000000000E+00   0.00000000000000E+00   0.00000000000000E+00   0.00000000000000E+00   0.00000000000000E+00
      1.83818813359390E-15  -1.80000000000000E+00  -1.80000000000000E+00   0.00000000000000E+00   0.00000000000000E+00
      2.24480516532810E-14   2.05624822270775E-42   2.24480516532810E-14  -5.70585736898917E-15   1.35000000000000E+00
      1.35000000000000E+00   0.00000000000000E+00   0.00000000000000E+00   9.02863736734913E-04   3.66776145427183E-55
      9.02863736734913E-04   2.45299339612896E-15
      8.00000000000000E-01
      0.00000000000000E+00   0.00000000000000E+00   0.00000000000000E+00   0.00000000000000E+00  -9.12106963385047E-04
     -1.16740938535464E-42  -9.12106963385047E-04   1.41057913293717E-15   1.80000000000000E+00   1.80000000000000E+00
      0.00000000000000E+00   0.00000000000000E+00   0.00000000000000E+00   0.00000000000000E+00   0.00000000000000E+00
      1.77547329347496E-15  -1.80000000000000E+00  -1.80000000000000E+00   0.00000000000000E+00   0.00000000000000E+00
      2.25792215827608E-13   1.16740938535460E-42   2.25792215827608E-13  -5.70862763961634E-15   1.44000000000000E+00
      1.44000000000000E+00   0.00000000000000E+00   0.00000000000000E+00   9.12106963159254E-04   4.07734095129773E-56
      9.12106963159254E-04   2.52257521320421E-15
      8.50000000000000E-01
      0.00000000000000E+00   0.00000000000000E+00   0.00000000000000E+00   0.00000000000000E+00  -9.20896801762551E-04
     -5.86121016689819E-43  -9.20896801762551E-04   1.40658963987841E-15   1.80000000000000E+00   1.80000000000000E+00
      0.00000000000000E+00   0.00000000000000E+00   0.00000000000000E+00   0.00000000000000E+00   0.00000000000000E+00
      1.71711124463837E-15  -1.80000000000000E+00  -1.80000000000000E+00   0.00000000000000E+00   0.00000000000000E+00
      3.77467346361335E-13   5.86121016689817E-43   3.77467346361335E-13  -5.71912522837415E-15   1.53000000000000E+00
      1.53000000000000E+00   0.00000000000000E+00   0.00000000000000E+00   9.20896801385083E-04   1.38374093686687E-57
      9.20896801385083E-04   2.59542434385737E-15
      9.00000000000000E-01
      0.00000000000000E+00   0.00000000000000E+00   0.00000000000000E+00   0.00000000000000E+00  -9.29388929885141E-04
     -1.23523002806113E-42  -9.29388929885141E-04   1.40268676905117E-15   1.80000000000000E+00   1.80000000000000E+00
      0.00000000000000E+00   0.00000000000000E+00   0.00000000000000E+00   0.00000000000000E+00   0.00000000000000E+00
      1.66236981260110E-15  -1.80000000000000E+00  -1.80000000000000E+00   0.00000000000000E+00   0.00000000000000E+00
      7.50164896629075E-15   1.23523002806113E-42   7.50164896629075E-15  -5.73587813709478E-15   1.62000000000000E+00
      1.62000000000000E+00   0.00000000000000E+00   0.00000000000000E+00   9.29388929877639E-04  -4.76550396773425E-58
      9.29388929877639E-04   2.67082155544251E-15
      9.50000000000000E-01
      0.00000000000000E+00   0.00000000000000E+00   0.00000000000000E+00   0.00000000000000E+00  -9.37444863228542E-04
     -2.13387426142294E-42  -9.37444863228542E-04   1.39888616148445E-15   1.80000000000000E+00   1.80000000000000E+00
      0.00000000000000E+00   0.00000000000000E+00   0.00000000000000E+00   0.00000000000000E+00   0.00000000000000E+00
      1.61043128705187E-15  -1.80000000000000E+00  -1.80000000000000E+00   0.00000000000000E+00   0.00000000000000E+00
     -1.50797780887941E-17   2.13387426142294E-42  -1.50797780887941E-17  -5.75647794156493E-15   1.71000000000000E+00
      1.71000000000000E+00   0.00000000000000E+00   0.00000000000000E+00   9.37444863228557E-04   7.23815746579847E-59
      9.37444863228557E-04   2.74716049302862E-15
      1.00000000000000E+00
      0.00000000000000E+00   0.00000000000000E+00   0.00000000000000E+00   0.00000000000000E+00  -9.45315518360340E-04
     -2.40559541508136E-42  -9.45315518360340E-04   1.39515810613535E-15   1.80000000000000E+00   1.80000000000000E+00
      0.00000000000000E+00   0.00000000000000E+00   0.00000000000000E+00   0.00000000000000E+00   0.00000000000000E+00
      1.56021222050742E-15  -1.80000000000000E+00  -1.80000000000000E+00   0.00000000000000E+00   0.00000000000000E+00
      5.20984952656638E-17   2.40559541508136E-42   5.20984952656638E-17  -5.77874460996121E-15   1.80000000000000E+00
      1.80000000000000E+00   0.00000000000000E+00   0.00000000000000E+00   9.45315518360288E-04   5.45367802643112E-60
      9.45315518360288E-04   2.82337428331845E-15
}
