DF-ISE text

Info {
  version   = 1.0
  type      = xyplot
  datasets  = [
    "time"
    "source OuterVoltage" "source InnerVoltage" "source QuasiFermiPotential" "source DisplacementCurrent" "source eCurrent"
    "source hCurrent" "source TotalCurrent" "source Charge" "gate OuterVoltage" "gate InnerVoltage"
    "gate QuasiFermiPotential" "gate DisplacementCurrent" "gate eCurrent" "gate hCurrent" "gate TotalCurrent"
    "gate Charge" "substrate OuterVoltage" "substrate InnerVoltage" "substrate QuasiFermiPotential" "substrate DisplacementCurrent"
    "substrate eCurrent" "substrate hCurrent" "substrate TotalCurrent" "substrate Charge" "drain OuterVoltage"
    "drain InnerVoltage" "drain QuasiFermiPotential" "drain DisplacementCurrent" "drain eCurrent" "drain hCurrent"
    "drain TotalCurrent" "drain Charge" ]
  functions = [
    Time
    OuterVoltage InnerVoltage QuasiFermiPotential DisplacementCurrent eCurrent
    hCurrent TotalCurrent Charge OuterVoltage InnerVoltage
    QuasiFermiPotential DisplacementCurrent eCurrent hCurrent TotalCurrent
    Charge OuterVoltage InnerVoltage QuasiFermiPotential DisplacementCurrent
    eCurrent hCurrent TotalCurrent Charge OuterVoltage
    InnerVoltage QuasiFermiPotential DisplacementCurrent eCurrent hCurrent
    TotalCurrent Charge ]
}

Data {
      5.00000000000000E-02
      0.00000000000000E+00   0.00000000000000E+00   0.00000000000000E+00   0.00000000000000E+00  -1.12328418935735E-10
     -1.12474284565043E-25  -1.12328418935735E-10   9.92633877791176E-16   4.50000000000000E-01   4.50000000000000E-01
      0.00000000000000E+00   0.00000000000000E+00   0.00000000000000E+00   0.00000000000000E+00   0.00000000000000E+00
      9.41349293711447E-16   0.00000000000000E+00   0.00000000000000E+00   0.00000000000000E+00   0.00000000000000E+00
     -2.66346187660757E-17   1.30241408661487E-25  -2.66346186358342E-17  -3.04504734480287E-15   9.00000000000000E-02
      9.00000000000000E-02   0.00000000000000E+00   0.00000000000000E+00   1.12328445570353E-10  -1.77671240964443E-26
      1.12328445570353E-10   1.11106417330025E-15
      1.00000000000000E-01
      0.00000000000000E+00   0.00000000000000E+00   0.00000000000000E+00   0.00000000000000E+00  -1.14307708107027E-10
     -7.09445925626707E-26  -1.14307708107027E-10   9.92633877510907E-16   4.50000000000000E-01   4.50000000000000E-01
      0.00000000000000E+00   0.00000000000000E+00   0.00000000000000E+00   0.00000000000000E+00   0.00000000000000E+00
      8.78098185972052E-16   0.00000000000000E+00   0.00000000000000E+00   0.00000000000000E+00   0.00000000000000E+00
      1.42846584853413E-18   7.24135742469631E-26   1.42846592094770E-18  -3.10150925559957E-15   1.80000000000000E-01
      1.80000000000000E-01   0.00000000000000E+00   0.00000000000000E+00   1.14307706678561E-10  -1.46898168429244E-27
      1.14307706678561E-10   1.23077719211661E-15
      1.50000000000000E-01
      0.00000000000000E+00   0.00000000000000E+00   0.00000000000000E+00   0.00000000000000E+00  -1.14962424957858E-10
     -8.60418591085363E-26  -1.14962424957858E-10   9.92633877140556E-16   4.50000000000000E-01   4.50000000000000E-01
      0.00000000000000E+00   0.00000000000000E+00   0.00000000000000E+00   0.00000000000000E+00   0.00000000000000E+00
      8.18197230679966E-16   0.00000000000000E+00   0.00000000000000E+00   0.00000000000000E+00   0.00000000000000E+00
      2.25204970343965E-18   8.61281251027154E-26   2.25204978956777E-18  -3.15961381983647E-15   2.70000000000000E-01
      2.70000000000000E-01   0.00000000000000E+00   0.00000000000000E+00   1.14962422705808E-10  -8.62659941790033E-29
      1.14962422705808E-10   1.34878271201595E-15
      2.00000000000000E-01
      0.00000000000000E+00   0.00000000000000E+00   0.00000000000000E+00   0.00000000000000E+00  -1.15567647457206E-10
     -6.22566891404141E-26  -1.15567647457206E-10   9.92633876772533E-16   4.50000000000000E-01   4.50000000000000E-01
      0.00000000000000E+00   0.00000000000000E+00   0.00000000000000E+00   0.00000000000000E+00   0.00000000000000E+00
      7.60182015994774E-16   0.00000000000000E+00   0.00000000000000E+00   0.00000000000000E+00   0.00000000000000E+00
      4.51131434519229E-19   6.22716460652687E-26   4.51131496790875E-19  -3.21696751705325E-15   3.60000000000000E-01
      3.60000000000000E-01   0.00000000000000E+00   0.00000000000000E+00   1.15567647006074E-10  -1.49569248546884E-29
      1.15567647006074E-10   1.46415162428594E-15
      2.50000000000000E-01
      0.00000000000000E+00   0.00000000000000E+00   0.00000000000000E+00   0.00000000000000E+00  -1.16134700618739E-10
     -1.08794204521148E-25  -1.16134700618739E-10   9.92633876402846E-16   4.50000000000000E-01   4.50000000000000E-01
      0.00000000000000E+00   0.00000000000000E+00   0.00000000000000E+00   0.00000000000000E+00   0.00000000000000E+00
      7.03519338021677E-16   0.00000000000000E+00   0.00000000000000E+00   0.00000000000000E+00   0.00000000000000E+00
      2.44730962362221E-19   1.08795611243675E-25   2.44731071157832E-19  -3.27309665878527E-15   4.50000000000000E-01
      4.50000000000000E-01   0.00000000000000E+00   0.00000000000000E+00   1.16134700374008E-10  -1.40672252766270E-30
      1.16134700374008E-10   1.57694344436074E-15
      3.00000000000000E-01
      0.00000000000000E+00   0.00000000000000E+00   0.00000000000000E+00   0.00000000000000E+00  -1.16672469541187E-10
     -1.24585606083381E-25  -1.16672469541187E-10   9.92633876030116E-16   4.50000000000000E-01   4.50000000000000E-01
      0.00000000000000E+00   0.00000000000000E+00   0.00000000000000E+00   0.00000000000000E+00   0.00000000000000E+00
      6.48061359289977E-16   0.00000000000000E+00   0.00000000000000E+00   0.00000000000000E+00   0.00000000000000E+00
     -8.55250350413763E-19   1.24585568844973E-25  -8.55250225828194E-19  -3.32801107263813E-15   5.40000000000000E-01
      5.40000000000000E-01   0.00000000000000E+00   0.00000000000000E+00   1.16672470396437E-10   3.72384077710622E-32
      1.16672470396437E-10   1.68731583731804E-15
      3.50000000000000E-01
      0.00000000000000E+00   0.00000000000000E+00   0.00000000000000E+00   0.00000000000000E+00  -1.17183242028114E-10
     -1.17898545421000E-25  -1.17183242028114E-10   9.92633875655345E-16   4.50000000000000E-01   4.50000000000000E-01
      0.00000000000000E+00   0.00000000000000E+00   0.00000000000000E+00   0.00000000000000E+00   0.00000000000000E+00
      5.93860652035035E-16   0.00000000000000E+00   0.00000000000000E+00   0.00000000000000E+00   0.00000000000000E+00
      2.59789559574189E-19   1.17898591696447E-25   2.59789677472781E-19  -3.38179318261851E-15   6.30000000000000E-01
      6.30000000000000E-01   0.00000000000000E+00   0.00000000000000E+00   1.17183241768324E-10  -4.62754466541767E-32
      1.17183241768324E-10   1.79529865492812E-15
      4.00000000000000E-01
      0.00000000000000E+00   0.00000000000000E+00   0.00000000000000E+00   0.00000000000000E+00  -1.17667613673036E-10
     -1.28578263278576E-25  -1.17667613673037E-10   9.92633875280068E-16   4.50000000000000E-01   4.50000000000000E-01
      0.00000000000000E+00   0.00000000000000E+00   0.00000000000000E+00   0.00000000000000E+00   0.00000000000000E+00
      5.40923924389651E-16   0.00000000000000E+00   0.00000000000000E+00   0.00000000000000E+00   0.00000000000000E+00
     -2.85028121715448E-18   1.28578275927228E-25  -2.85028108857620E-18  -3.43452520434598E-15   7.20000000000000E-01
      7.20000000000000E-01   0.00000000000000E+00   0.00000000000000E+00   1.17667616523318E-10  -1.26486520809292E-32
      1.17667616523318E-10   1.90096740467626E-15
      4.50000000000000E-01
      0.00000000000000E+00   0.00000000000000E+00   0.00000000000000E+00   0.00000000000000E+00  -1.18128557844625E-10
     -1.25842645052261E-25  -1.18128557844625E-10   9.92633874904070E-16   4.50000000000000E-01   4.50000000000000E-01
      0.00000000000000E+00   0.00000000000000E+00   0.00000000000000E+00   0.00000000000000E+00   0.00000000000000E+00
      4.89069873014876E-16   0.00000000000000E+00   0.00000000000000E+00   0.00000000000000E+00   0.00000000000000E+00
     -8.62055249561447E-19   1.25842646148024E-25  -8.62055123718801E-19  -3.48629273938853E-15   8.10000000000000E-01
      8.10000000000000E-01   0.00000000000000E+00   0.00000000000000E+00   1.18128558706680E-10  -1.09576388200738E-33
      1.18128558706680E-10   2.00458899146959E-15
      5.00000000000000E-01
      0.00000000000000E+00   0.00000000000000E+00   0.00000000000000E+00   0.00000000000000E+00  -1.18570693862548E-10
     -1.08857669062997E-25  -1.18570693862548E-10   9.92633874525419E-16   4.50000000000000E-01   4.50000000000000E-01
      0.00000000000000E+00   0.00000000000000E+00   0.00000000000000E+00   0.00000000000000E+00   0.00000000000000E+00
      4.38120229129191E-16   0.00000000000000E+00   0.00000000000000E+00   0.00000000000000E+00   0.00000000000000E+00
     -1.49825094854333E-19   1.08857669271834E-25  -1.49824985996663E-19  -3.53718243963738E-15   9.00000000000000E-01
      9.00000000000000E-01   0.00000000000000E+00   0.00000000000000E+00   1.18570694012373E-10  -2.08837358317774E-34
      1.18570694012373E-10   2.10642833598276E-15
      5.50000000000000E-01
      0.00000000000000E+00   0.00000000000000E+00   0.00000000000000E+00   0.00000000000000E+00  -1.18998230914822E-10
     -1.30085125542053E-25  -1.18998230914822E-10   9.92633874141906E-16   4.50000000000000E-01   4.50000000000000E-01
      0.00000000000000E+00   0.00000000000000E+00   0.00000000000000E+00   0.00000000000000E+00   0.00000000000000E+00
      3.88066301210172E-16   0.00000000000000E+00   0.00000000000000E+00   0.00000000000000E+00   0.00000000000000E+00
     -4.04776083945869E-20   1.30085125615806E-25  -4.04774783094613E-20  -3.58726984959878E-15   9.90000000000000E-01
      9.90000000000000E-01   0.00000000000000E+00   0.00000000000000E+00   1.18998230955300E-10  -7.37527748589735E-35
      1.18998230955300E-10   2.20656967424670E-15
      6.00000000000000E-01
      0.00000000000000E+00   0.00000000000000E+00   0.00000000000000E+00   0.00000000000000E+00  -1.19413839067797E-10
     -9.83038835535522E-26  -1.19413839067797E-10   9.92633873752126E-16   4.50000000000000E-01   4.50000000000000E-01
      0.00000000000000E+00   0.00000000000000E+00   0.00000000000000E+00   0.00000000000000E+00   0.00000000000000E+00
      3.39056189068451E-16   0.00000000000000E+00   0.00000000000000E+00   0.00000000000000E+00   0.00000000000000E+00
      8.01942451478607E-19   9.83038835759381E-26   8.01942549782490E-19  -3.63661139614018E-15   1.08000000000000E+00
      1.08000000000000E+00   0.00000000000000E+00   0.00000000000000E+00   1.19413838265854E-10  -2.23859647786425E-35
      1.19413838265854E-10   2.30492133331960E-15
      6.50000000000000E-01
      0.00000000000000E+00   0.00000000000000E+00   0.00000000000000E+00   0.00000000000000E+00  -1.19818400296084E-10
     -1.27198129930090E-25  -1.19818400296084E-10   9.92633873356039E-16   4.50000000000000E-01   4.50000000000000E-01
      0.00000000000000E+00   0.00000000000000E+00   0.00000000000000E+00   0.00000000000000E+00   0.00000000000000E+00
      2.91298701574538E-16   0.00000000000000E+00   0.00000000000000E+00   0.00000000000000E+00   0.00000000000000E+00
      2.47046288939444E-19   1.27198129961291E-25   2.47046416137574E-19  -3.68524329176380E-15   1.17000000000000E+00
      1.17000000000000E+00   0.00000000000000E+00   0.00000000000000E+00   1.19818400049038E-10  -3.12014958761655E-35
      1.19818400049038E-10   2.40131071683322E-15
      7.00000000000000E-01
      0.00000000000000E+00   0.00000000000000E+00   0.00000000000000E+00   0.00000000000000E+00  -1.20211618880056E-10
     -1.01493306627623E-25  -1.20211618880056E-10   9.92633872954726E-16   4.50000000000000E-01   4.50000000000000E-01
      0.00000000000000E+00   0.00000000000000E+00   0.00000000000000E+00   0.00000000000000E+00   0.00000000000000E+00
      2.44915718746518E-16   0.00000000000000E+00   0.00000000000000E+00   0.00000000000000E+00   0.00000000000000E+00
     -5.44068692626322E-19   1.01493306642047E-25  -5.44068591133015E-19  -3.73318826753102E-15   1.26000000000000E+00
      1.26000000000000E+00   0.00000000000000E+00   0.00000000000000E+00   1.20211619424125E-10  -1.44246087305230E-35
      1.20211619424125E-10   2.49563867582977E-15
      7.50000000000000E-01
      0.00000000000000E+00   0.00000000000000E+00   0.00000000000000E+00   0.00000000000000E+00  -1.20593762127285E-10
     -1.07971643760148E-25  -1.20593762127285E-10   9.92633872548839E-16   4.50000000000000E-01   4.50000000000000E-01
      0.00000000000000E+00   0.00000000000000E+00   0.00000000000000E+00   0.00000000000000E+00   0.00000000000000E+00
      1.99802660316479E-16   0.00000000000000E+00   0.00000000000000E+00   0.00000000000000E+00   0.00000000000000E+00
     -1.72034324961500E-18   1.07971643769657E-25  -1.72034314164336E-18  -3.78047004656193E-15   1.35000000000000E+00
      1.35000000000000E+00   0.00000000000000E+00   0.00000000000000E+00   1.20593763847628E-10  -9.50926148835069E-36
      1.20593763847628E-10   2.58803351369662E-15
      8.00000000000000E-01
      0.00000000000000E+00   0.00000000000000E+00   0.00000000000000E+00   0.00000000000000E+00  -1.20966675034489E-10
     -8.86700272107341E-26  -1.20966675034489E-10   9.92633872137363E-16   4.50000000000000E-01   4.50000000000000E-01
      0.00000000000000E+00   0.00000000000000E+00   0.00000000000000E+00   0.00000000000000E+00   0.00000000000000E+00
      1.55649712292619E-16   0.00000000000000E+00   0.00000000000000E+00   0.00000000000000E+00   0.00000000000000E+00
     -5.32749484556027E-20   8.86700272094870E-26  -5.32748597855755E-20  -3.82712158441895E-15   1.44000000000000E+00
      1.44000000000000E+00   0.00000000000000E+00   0.00000000000000E+00   1.20966675087764E-10   1.24728955445932E-36
      1.20966675087764E-10   2.67883799998897E-15
      8.50000000000000E-01
      0.00000000000000E+00   0.00000000000000E+00   0.00000000000000E+00   0.00000000000000E+00  -1.21331710770443E-10
     -1.20373924660463E-25  -1.21331710770443E-10   9.92633871719282E-16   4.50000000000000E-01   4.50000000000000E-01
      0.00000000000000E+00   0.00000000000000E+00   0.00000000000000E+00   0.00000000000000E+00   0.00000000000000E+00
      1.12209696530663E-16   0.00000000000000E+00   0.00000000000000E+00   0.00000000000000E+00   0.00000000000000E+00
     -1.49948872250997E-19   1.20373924664673E-25  -1.49948751877072E-19  -3.87316986893795E-15   1.53000000000000E+00
      1.53000000000000E+00   0.00000000000000E+00   0.00000000000000E+00   1.21331710920392E-10  -4.20984190982760E-36
      1.21331710920392E-10   2.76832630068801E-15
      9.00000000000000E-01
      0.00000000000000E+00   0.00000000000000E+00   0.00000000000000E+00   0.00000000000000E+00  -1.21689358348121E-10
     -9.04886043466215E-26  -1.21689358348121E-10   9.92633871295187E-16   4.50000000000000E-01   4.50000000000000E-01
      0.00000000000000E+00   0.00000000000000E+00   0.00000000000000E+00   0.00000000000000E+00   0.00000000000000E+00
      6.94048997478034E-17   0.00000000000000E+00   0.00000000000000E+00   0.00000000000000E+00   0.00000000000000E+00
     -7.68394244681515E-19   9.04886043483783E-26  -7.68394154192911E-19  -3.91862276029760E-15   1.62000000000000E+00
      1.62000000000000E+00   0.00000000000000E+00   0.00000000000000E+00   1.21689359116515E-10  -1.75684318657329E-36
      1.21689359116515E-10   2.85658398925462E-15
      9.50000000000000E-01
      0.00000000000000E+00   0.00000000000000E+00   0.00000000000000E+00   0.00000000000000E+00  -1.22038355844745E-10
     -1.05761434084995E-25  -1.22038355844745E-10   9.92633870867232E-16   4.50000000000000E-01   4.50000000000000E-01
      0.00000000000000E+00   0.00000000000000E+00   0.00000000000000E+00   0.00000000000000E+00   0.00000000000000E+00
      2.72265136924226E-17   0.00000000000000E+00   0.00000000000000E+00   0.00000000000000E+00   0.00000000000000E+00
     -3.25921657654107E-19   1.05761434085801E-25  -3.25921551892673E-19  -3.96346684941510E-15   1.71000000000000E+00
      1.71000000000000E+00   0.00000000000000E+00   0.00000000000000E+00   1.22038356170667E-10  -8.05934009867254E-37
      1.22038356170667E-10   2.94360646485545E-15
      1.00000000000000E+00
      0.00000000000000E+00   0.00000000000000E+00   0.00000000000000E+00   0.00000000000000E+00  -1.22376334016282E-10
     -1.19521794471390E-25  -1.22376334016282E-10   9.92633870439200E-16   4.50000000000000E-01   4.50000000000000E-01
      0.00000000000000E+00   0.00000000000000E+00   0.00000000000000E+00   0.00000000000000E+00   0.00000000000000E+00
     -1.43104083161744E-17   0.00000000000000E+00   0.00000000000000E+00   0.00000000000000E+00   0.00000000000000E+00
     -1.37623638323312E-19   1.19521794472234E-25  -1.37623518801518E-19  -4.00766416028427E-15   1.80000000000000E+00
      1.80000000000000E+00   0.00000000000000E+00   0.00000000000000E+00   1.22376334153906E-10  -8.44597258234804E-37
      1.22376334153906E-10   3.02934069816125E-15
}
