DF-ISE text

Info {
  version   = 1.0
  type      = xyplot
  datasets  = [
    "time"
    "source OuterVoltage" "source InnerVoltage" "source QuasiFermiPotential" "source DisplacementCurrent" "source eCurrent"
    "source hCurrent" "source TotalCurrent" "source Charge" "gate OuterVoltage" "gate InnerVoltage"
    "gate QuasiFermiPotential" "gate DisplacementCurrent" "gate eCurrent" "gate hCurrent" "gate TotalCurrent"
    "gate Charge" "substrate OuterVoltage" "substrate InnerVoltage" "substrate QuasiFermiPotential" "substrate DisplacementCurrent"
    "substrate eCurrent" "substrate hCurrent" "substrate TotalCurrent" "substrate Charge" "drain OuterVoltage"
    "drain InnerVoltage" "drain QuasiFermiPotential" "drain DisplacementCurrent" "drain eCurrent" "drain hCurrent"
    "drain TotalCurrent" "drain Charge" ]
  functions = [
    Time
    OuterVoltage InnerVoltage QuasiFermiPotential DisplacementCurrent eCurrent
    hCurrent TotalCurrent Charge OuterVoltage InnerVoltage
    QuasiFermiPotential DisplacementCurrent eCurrent hCurrent TotalCurrent
    Charge OuterVoltage InnerVoltage QuasiFermiPotential DisplacementCurrent
    eCurrent hCurrent TotalCurrent Charge OuterVoltage
    InnerVoltage QuasiFermiPotential DisplacementCurrent eCurrent hCurrent
    TotalCurrent Charge ]
}

Data {
      5.00000000000000E-02
      0.00000000000000E+00   0.00000000000000E+00   0.00000000000000E+00   0.00000000000000E+00  -1.48537904105796E-04
     -2.71355592612541E-25  -1.48537904105796E-04   6.38222566774672E-16   1.35000000000000E+00   1.35000000000000E+00
      0.00000000000000E+00   0.00000000000000E+00   0.00000000000000E+00   0.00000000000000E+00   0.00000000000000E+00
      1.98823260631237E-15   0.00000000000000E+00   0.00000000000000E+00   0.00000000000000E+00   0.00000000000000E+00
      3.31874393469980E-18   2.94953348951340E-25   3.31874422965315E-18  -3.34764044681058E-15   9.00000000000000E-02
      9.00000000000000E-02   0.00000000000000E+00   0.00000000000000E+00   1.48537904105793E-04  -2.35977563387999E-26
      1.48537904105793E-04   7.21185273723542E-16
      1.00000000000000E-01
      0.00000000000000E+00   0.00000000000000E+00   0.00000000000000E+00   0.00000000000000E+00  -2.66906656696636E-04
     -2.71539443303023E-25  -2.66906656696636E-04   6.36554208406127E-16   1.35000000000000E+00   1.35000000000000E+00
      0.00000000000000E+00   0.00000000000000E+00   0.00000000000000E+00   0.00000000000000E+00   0.00000000000000E+00
      1.88061668150327E-15   0.00000000000000E+00   0.00000000000000E+00   0.00000000000000E+00   0.00000000000000E+00
      2.79994985514712E-18   2.74147019349507E-25   2.79995012929414E-18  -3.32023673858629E-15   1.80000000000000E-01
      1.80000000000000E-01   0.00000000000000E+00   0.00000000000000E+00   2.66906656696634E-04  -2.60757604648391E-27
      2.66906656696634E-04   8.03065848676893E-16
      1.50000000000000E-01
      0.00000000000000E+00   0.00000000000000E+00   0.00000000000000E+00   0.00000000000000E+00  -3.56434920754791E-04
     -2.46210593798302E-25  -3.56434920754791E-04   6.33578354047251E-16   1.35000000000000E+00   1.35000000000000E+00
      0.00000000000000E+00   0.00000000000000E+00   0.00000000000000E+00   0.00000000000000E+00   0.00000000000000E+00
      1.77551061422906E-15   0.00000000000000E+00   0.00000000000000E+00   0.00000000000000E+00   0.00000000000000E+00
     -5.53570196306992E-18   2.46487043515857E-25  -5.53570171658288E-18  -3.29395359048989E-15   2.70000000000000E-01
      2.70000000000000E-01   0.00000000000000E+00   0.00000000000000E+00   3.56434920754796E-04  -2.76449717554684E-28
      3.56434920754796E-04   8.84864622213583E-16
      2.00000000000000E-01
      0.00000000000000E+00   0.00000000000000E+00   0.00000000000000E+00   0.00000000000000E+00  -4.20735243231615E-04
     -2.81705635620019E-25  -4.20735243231615E-04   6.29635924203719E-16   1.35000000000000E+00   1.35000000000000E+00
      0.00000000000000E+00   0.00000000000000E+00   0.00000000000000E+00   0.00000000000000E+00   0.00000000000000E+00
      1.67386913123830E-15   0.00000000000000E+00   0.00000000000000E+00   0.00000000000000E+00   0.00000000000000E+00
      1.14877452932128E-17   2.81742047380640E-25   1.14877455749549E-17  -3.27053308670448E-15   3.60000000000000E-01
      3.60000000000000E-01   0.00000000000000E+00   0.00000000000000E+00   4.20735243231603E-04  -3.64117606211746E-29
      4.20735243231603E-04   9.67028031262457E-16
      2.50000000000000E-01
      0.00000000000000E+00   0.00000000000000E+00   0.00000000000000E+00   0.00000000000000E+00  -4.65094255785548E-04
     -2.61863887355073E-25  -4.65094255785548E-04   6.25213548690836E-16   1.35000000000000E+00   1.35000000000000E+00
      0.00000000000000E+00   0.00000000000000E+00   0.00000000000000E+00   0.00000000000000E+00   0.00000000000000E+00
      1.57673627230326E-15   0.00000000000000E+00   0.00000000000000E+00   0.00000000000000E+00   0.00000000000000E+00
      6.43855761040519E-18   2.61868280443502E-25   6.43855787227347E-18  -3.25159153105801E-15   4.50000000000000E-01
      4.50000000000000E-01   0.00000000000000E+00   0.00000000000000E+00   4.65094255785542E-04  -4.39308842950104E-30
      4.65094255785542E-04   1.04964171006392E-15
      3.00000000000000E-01
      0.00000000000000E+00   0.00000000000000E+00   0.00000000000000E+00   0.00000000000000E+00  -4.95596800420411E-04
     -2.77937895013847E-25  -4.95596800420411E-04   6.20758937988256E-16   1.35000000000000E+00   1.35000000000000E+00
      0.00000000000000E+00   0.00000000000000E+00   0.00000000000000E+00   0.00000000000000E+00   0.00000000000000E+00
      1.48485009435444E-15   0.00000000000000E+00   0.00000000000000E+00   0.00000000000000E+00   0.00000000000000E+00
      9.56181913630278E-18   2.77938375537023E-25   9.56181941424116E-18  -3.23810365935628E-15   5.40000000000000E-01
      5.40000000000000E-01   0.00000000000000E+00   0.00000000000000E+00   4.95596800420402E-04  -4.80523176394246E-31
      4.95596800420402E-04   1.13249462701358E-15
      3.50000000000000E-01
      0.00000000000000E+00   0.00000000000000E+00   0.00000000000000E+00   0.00000000000000E+00  -5.17730603937728E-04
     -2.60154853231847E-25  -5.17730603937728E-04   6.16514499439256E-16   1.35000000000000E+00   1.35000000000000E+00
      0.00000000000000E+00   0.00000000000000E+00   0.00000000000000E+00   0.00000000000000E+00   0.00000000000000E+00
      1.39818411388529E-15   0.00000000000000E+00   0.00000000000000E+00   0.00000000000000E+00   0.00000000000000E+00
     -1.37441794766802E-17   2.60154907926186E-25  -1.37441792165253E-17  -3.23013550440882E-15   6.30000000000000E-01
      6.30000000000000E-01   0.00000000000000E+00   0.00000000000000E+00   5.17730603937741E-04  -5.46943389898715E-32
      5.17730603937741E-04   1.21543689108427E-15
      4.00000000000000E-01
      0.00000000000000E+00   0.00000000000000E+00   0.00000000000000E+00   0.00000000000000E+00  -5.35189533284435E-04
     -2.64354774235403E-25  -5.35189533284435E-04   6.12533278074665E-16   1.35000000000000E+00   1.35000000000000E+00
      0.00000000000000E+00   0.00000000000000E+00   0.00000000000000E+00   0.00000000000000E+00   0.00000000000000E+00
      1.31630124016402E-15   0.00000000000000E+00   0.00000000000000E+00   0.00000000000000E+00   0.00000000000000E+00
     -9.21504159033749E-18   2.64354777159565E-25  -9.21504132598271E-18  -3.22756411286305E-15   7.20000000000000E-01
      7.20000000000000E-01   0.00000000000000E+00   0.00000000000000E+00   5.35189533284444E-04  -2.92416279103715E-33
      5.35189533284444E-04   1.29872959462437E-15
      4.50000000000000E-01
      0.00000000000000E+00   0.00000000000000E+00   0.00000000000000E+00   0.00000000000000E+00  -5.49941219447170E-04
     -2.66075712948897E-25  -5.49941219447170E-04   6.08800282938813E-16   1.35000000000000E+00   1.35000000000000E+00
      0.00000000000000E+00   0.00000000000000E+00   0.00000000000000E+00   0.00000000000000E+00   0.00000000000000E+00
      1.23915465461531E-15   0.00000000000000E+00   0.00000000000000E+00   0.00000000000000E+00   0.00000000000000E+00
     -6.93963395287082E-19   2.66075712716101E-25  -6.93963129211370E-19  -3.23099933552848E-15   8.10000000000000E-01
      8.10000000000000E-01   0.00000000000000E+00   0.00000000000000E+00   5.49941219447170E-04   2.32795359529496E-34
      5.49941219447170E-04   1.38304439797436E-15
      5.00000000000000E-01
      0.00000000000000E+00   0.00000000000000E+00   0.00000000000000E+00   0.00000000000000E+00  -5.62890661629198E-04
     -2.49027127929518E-25  -5.62890661629198E-04   6.05292961612590E-16   1.35000000000000E+00   1.35000000000000E+00
      0.00000000000000E+00   0.00000000000000E+00   0.00000000000000E+00   0.00000000000000E+00   0.00000000000000E+00
      1.16718522140291E-15   0.00000000000000E+00   0.00000000000000E+00   0.00000000000000E+00   0.00000000000000E+00
     -3.82835534191887E-18   2.49027127916608E-25  -3.82835509289175E-18  -3.24194464439896E-15   9.00000000000000E-01
      9.00000000000000E-01   0.00000000000000E+00   0.00000000000000E+00   5.62890661629201E-04   1.29093499908293E-35
      5.62890661629201E-04   1.46946646138346E-15
      5.50000000000000E-01
      0.00000000000000E+00   0.00000000000000E+00   0.00000000000000E+00   0.00000000000000E+00  -5.74495610396054E-04
     -2.74416857951837E-25  -5.74495610396054E-04   6.01989018550820E-16   1.35000000000000E+00   1.35000000000000E+00
      0.00000000000000E+00   0.00000000000000E+00   0.00000000000000E+00   0.00000000000000E+00   0.00000000000000E+00
      1.10108154306804E-15   0.00000000000000E+00   0.00000000000000E+00   0.00000000000000E+00   0.00000000000000E+00
      4.58222390288142E-18   2.74416857961100E-25   4.58222417729828E-18  -3.26242395313959E-15   9.90000000000000E-01
      9.90000000000000E-01   0.00000000000000E+00   0.00000000000000E+00   5.74495610396049E-04  -9.26237497844416E-36
      5.74495610396049E-04   1.55935339152072E-15
      6.00000000000000E-01
      0.00000000000000E+00   0.00000000000000E+00   0.00000000000000E+00   0.00000000000000E+00  -5.85154508430825E-04
     -2.74968159477131E-25  -5.85154508430825E-04   5.98848558082087E-16   1.35000000000000E+00   1.35000000000000E+00
      0.00000000000000E+00   0.00000000000000E+00   0.00000000000000E+00   0.00000000000000E+00   0.00000000000000E+00
      1.04061334088542E-15   0.00000000000000E+00   0.00000000000000E+00   0.00000000000000E+00   0.00000000000000E+00
      5.82736964185229E-18   2.74968159477424E-25   5.82736991682045E-18  -3.29255932814956E-15   1.08000000000000E+00
      1.08000000000000E+00   0.00000000000000E+00   0.00000000000000E+00   5.85154508430819E-04  -2.92275488951384E-37
      5.85154508430819E-04   1.65309742918205E-15
      6.50000000000000E-01
      0.00000000000000E+00   0.00000000000000E+00   0.00000000000000E+00   0.00000000000000E+00  -5.95287158528868E-04
     -2.62985786967732E-25  -5.95287158528868E-04   5.95821949434928E-16   1.35000000000000E+00   1.35000000000000E+00
      0.00000000000000E+00   0.00000000000000E+00   0.00000000000000E+00   0.00000000000000E+00   0.00000000000000E+00
      9.84016306051394E-16   0.00000000000000E+00   0.00000000000000E+00   0.00000000000000E+00   0.00000000000000E+00
      2.22278790177611E-18   2.62985786967457E-25   2.22278816476190E-18  -3.32880290957704E-15   1.17000000000000E+00
      1.17000000000000E+00   0.00000000000000E+00   0.00000000000000E+00   5.95287158528865E-04   2.74961634458907E-37
      5.95287158528865E-04   1.74896465409071E-15
      7.00000000000000E-01
      0.00000000000000E+00   0.00000000000000E+00   0.00000000000000E+00   0.00000000000000E+00  -6.05077419401913E-04
     -2.54965150159817E-25  -6.05077419401913E-04   5.92880327218219E-16   1.35000000000000E+00   1.35000000000000E+00
      0.00000000000000E+00   0.00000000000000E+00   0.00000000000000E+00   0.00000000000000E+00   0.00000000000000E+00
      9.29617526879708E-16   0.00000000000000E+00   0.00000000000000E+00   0.00000000000000E+00   0.00000000000000E+00
      7.74856100742071E-17   2.54965150159621E-25   7.74856103291722E-17  -3.36741456810517E-15   1.26000000000000E+00
      1.26000000000000E+00   0.00000000000000E+00   0.00000000000000E+00   6.05077419401835E-04   1.95514668087980E-37
      6.05077419401835E-04   1.84491671400724E-15
      7.50000000000000E-01
      0.00000000000000E+00   0.00000000000000E+00   0.00000000000000E+00   0.00000000000000E+00  -6.14599184761549E-04
     -2.83612334318414E-25  -6.14599184761549E-04   5.90010237437612E-16   1.35000000000000E+00   1.35000000000000E+00
      0.00000000000000E+00   0.00000000000000E+00   0.00000000000000E+00   0.00000000000000E+00   0.00000000000000E+00
      8.76729705185109E-16   0.00000000000000E+00   0.00000000000000E+00   0.00000000000000E+00   0.00000000000000E+00
      3.25714753223552E-16   2.83612334318404E-25   3.25714753507165E-16  -3.40664559270707E-15   1.35000000000000E+00
      1.35000000000000E+00   0.00000000000000E+00   0.00000000000000E+00   6.14599184761224E-04   1.01489945447856E-38
      6.14599184761224E-04   1.93990565008434E-15
      8.00000000000000E-01
      0.00000000000000E+00   0.00000000000000E+00   0.00000000000000E+00   0.00000000000000E+00  -6.23888749100708E-04
     -2.45600851020618E-25  -6.23888749100708E-04   5.87205425953247E-16   1.35000000000000E+00   1.35000000000000E+00
      0.00000000000000E+00   0.00000000000000E+00   0.00000000000000E+00   0.00000000000000E+00   0.00000000000000E+00
      8.25222743184297E-16   0.00000000000000E+00   0.00000000000000E+00   0.00000000000000E+00   0.00000000000000E+00
      5.77422467539822E-16   2.45600851020616E-25   5.77422467785423E-16  -3.44594026988060E-15   1.44000000000000E+00
      1.44000000000000E+00   0.00000000000000E+00   0.00000000000000E+00   6.23888749100130E-04   2.18011928548492E-39
      6.23888749100130E-04   2.03351210074306E-15
      8.50000000000000E-01
      0.00000000000000E+00   0.00000000000000E+00   0.00000000000000E+00   0.00000000000000E+00  -6.32951655099634E-04
     -2.53796739672207E-25  -6.32951655099634E-04   5.84464049261162E-16   1.35000000000000E+00   1.35000000000000E+00
      0.00000000000000E+00   0.00000000000000E+00   0.00000000000000E+00   0.00000000000000E+00   0.00000000000000E+00
      7.75088307045704E-16   0.00000000000000E+00   0.00000000000000E+00   0.00000000000000E+00   0.00000000000000E+00
      4.54086566208116E-17   2.53796739672207E-25   4.54086568746083E-17  -3.48513750728793E-15   1.53000000000000E+00
      1.53000000000000E+00   0.00000000000000E+00   0.00000000000000E+00   6.32951655099588E-04   3.85252035029998E-40
      6.32951655099588E-04   2.12558515098106E-15
      9.00000000000000E-01
      0.00000000000000E+00   0.00000000000000E+00   0.00000000000000E+00   0.00000000000000E+00  -6.41781113268764E-04
     -2.60194867698303E-25  -6.41781113268764E-04   5.81786970251051E-16   1.35000000000000E+00   1.35000000000000E+00
      0.00000000000000E+00   0.00000000000000E+00   0.00000000000000E+00   0.00000000000000E+00   0.00000000000000E+00
      7.26269132710510E-16   0.00000000000000E+00   0.00000000000000E+00   0.00000000000000E+00   0.00000000000000E+00
     -6.13916372394823E-18   2.60194867698303E-25  -6.13916346375336E-18  -3.52417420522070E-15   1.62000000000000E+00
      1.62000000000000E+00   0.00000000000000E+00   0.00000000000000E+00   6.41781113268770E-04  -6.70841037508920E-41
      6.41781113268770E-04   2.21611810225914E-15
      9.50000000000000E-01
      0.00000000000000E+00   0.00000000000000E+00   0.00000000000000E+00   0.00000000000000E+00  -6.50335509762219E-04
     -2.40509209478262E-25  -6.50335509762219E-04   5.79178040569459E-16   1.35000000000000E+00   1.35000000000000E+00
      0.00000000000000E+00   0.00000000000000E+00   0.00000000000000E+00   0.00000000000000E+00   0.00000000000000E+00
      6.78689999017916E-16   0.00000000000000E+00   0.00000000000000E+00   0.00000000000000E+00   0.00000000000000E+00
      8.00728993677874E-18   2.40509209478262E-25   8.00729017728795E-18  -3.56305907021284E-15   1.71000000000000E+00
      1.71000000000000E+00   0.00000000000000E+00   0.00000000000000E+00   6.50335509762210E-04   1.57012827793412E-41
      6.50335509762210E-04   2.30519103062546E-15
      1.00000000000000E+00
      0.00000000000000E+00   0.00000000000000E+00   0.00000000000000E+00   0.00000000000000E+00  -6.58655128990688E-04
     -2.82185799183436E-25  -6.58655128990688E-04   5.76632241314913E-16   1.35000000000000E+00   1.35000000000000E+00
      0.00000000000000E+00   0.00000000000000E+00   0.00000000000000E+00   0.00000000000000E+00   0.00000000000000E+00
      6.32186258508992E-16   0.00000000000000E+00   0.00000000000000E+00   0.00000000000000E+00   0.00000000000000E+00
     -4.50055168510746E-18   2.82185799183437E-25  -4.50055140292166E-18  -3.60171944283283E-15   1.80000000000000E+00
      1.80000000000000E+00   0.00000000000000E+00   0.00000000000000E+00   6.58655128990693E-04   4.88658542700979E-41
      6.58655128990693E-04   2.39290094300893E-15
}
