DF-ISE text

Info {
  version   = 1.0
  type      = xyplot
  datasets  = [
    "time"
    "source OuterVoltage" "source InnerVoltage" "source QuasiFermiPotential" "source DisplacementCurrent" "source eCurrent"
    "source hCurrent" "source TotalCurrent" "source Charge" "gate OuterVoltage" "gate InnerVoltage"
    "gate QuasiFermiPotential" "gate DisplacementCurrent" "gate eCurrent" "gate hCurrent" "gate TotalCurrent"
    "gate Charge" "substrate OuterVoltage" "substrate InnerVoltage" "substrate QuasiFermiPotential" "substrate DisplacementCurrent"
    "substrate eCurrent" "substrate hCurrent" "substrate TotalCurrent" "substrate Charge" "drain OuterVoltage"
    "drain InnerVoltage" "drain QuasiFermiPotential" "drain DisplacementCurrent" "drain eCurrent" "drain hCurrent"
    "drain TotalCurrent" "drain Charge" ]
  functions = [
    Time
    OuterVoltage InnerVoltage QuasiFermiPotential DisplacementCurrent eCurrent
    hCurrent TotalCurrent Charge OuterVoltage InnerVoltage
    QuasiFermiPotential DisplacementCurrent eCurrent hCurrent TotalCurrent
    Charge OuterVoltage InnerVoltage QuasiFermiPotential DisplacementCurrent
    eCurrent hCurrent TotalCurrent Charge OuterVoltage
    InnerVoltage QuasiFermiPotential DisplacementCurrent eCurrent hCurrent
    TotalCurrent Charge ]
}

Data {
      5.00000000000000E-02
      0.00000000000000E+00   0.00000000000000E+00   0.00000000000000E+00   0.00000000000000E+00  -1.61836579787453E-14
      2.48259035807620E-42  -1.61836579787453E-14   2.02585544516828E-15   4.50000000000000E-01   4.50000000000000E-01
      0.00000000000000E+00   0.00000000000000E+00   0.00000000000000E+00   0.00000000000000E+00   0.00000000000000E+00
      1.77143409680202E-15  -1.80000000000000E+00  -1.80000000000000E+00   0.00000000000000E+00   0.00000000000000E+00
      6.77009902366585E-16  -2.65867910771910E-42   6.77009902366585E-16  -5.91974201258808E-15   9.00000000000000E-02
      9.00000000000000E-02   0.00000000000000E+00   0.00000000000000E+00   1.55066480763787E-14   1.76088749642900E-43
      1.55066480763787E-14   2.12245247061777E-15
      1.00000000000000E-01
      0.00000000000000E+00   0.00000000000000E+00   0.00000000000000E+00   0.00000000000000E+00  -1.65057090778515E-14
      2.36350118006192E-42  -1.65057090778515E-14   2.02585525731439E-15   4.50000000000000E-01   4.50000000000000E-01
      0.00000000000000E+00   0.00000000000000E+00   0.00000000000000E+00   0.00000000000000E+00   0.00000000000000E+00
      1.70909195737362E-15  -1.80000000000000E+00  -1.80000000000000E+00   0.00000000000000E+00   0.00000000000000E+00
      3.03147071418624E-19  -2.38136904916425E-42   3.03147071418624E-19  -5.95758756373424E-15   1.80000000000000E-01
      1.80000000000000E-01   0.00000000000000E+00   0.00000000000000E+00   1.65054059307801E-14   1.78678691023246E-44
      1.65054059307801E-14   2.22264034904624E-15
      1.50000000000000E-01
      0.00000000000000E+00   0.00000000000000E+00   0.00000000000000E+00   0.00000000000000E+00  -1.66193096180545E-14
      2.10585398309787E-42  -1.66193096180545E-14   2.02585507102179E-15   4.50000000000000E-01   4.50000000000000E-01
      0.00000000000000E+00   0.00000000000000E+00   0.00000000000000E+00   0.00000000000000E+00   0.00000000000000E+00
      1.64949253376653E-15  -1.80000000000000E+00  -1.80000000000000E+00   0.00000000000000E+00   0.00000000000000E+00
     -8.90694253693310E-15  -2.10998004508325E-42  -8.90694253693310E-15  -5.99838052442162E-15   2.70000000000000E-01
      2.70000000000000E-01   0.00000000000000E+00   0.00000000000000E+00   2.55262521549876E-14   4.12606198538261E-45
      2.55262521549876E-14   2.32303291963330E-15
      2.00000000000000E-01
      0.00000000000000E+00   0.00000000000000E+00   0.00000000000000E+00   0.00000000000000E+00  -1.67408916331915E-14
      1.71984432893208E-42  -1.67408916331915E-14   2.02585488617743E-15   4.50000000000000E-01   4.50000000000000E-01
      0.00000000000000E+00   0.00000000000000E+00   0.00000000000000E+00   0.00000000000000E+00   0.00000000000000E+00
      1.59150295818848E-15  -1.80000000000000E+00  -1.80000000000000E+00   0.00000000000000E+00   0.00000000000000E+00
     -1.76683760020278E-18  -1.72036226370977E-42  -1.76683760020278E-18  -6.03930504565592E-15   3.60000000000000E-01
      3.60000000000000E-01   0.00000000000000E+00   0.00000000000000E+00   1.67426584707917E-14   5.17934777689849E-46
      1.67426584707917E-14   2.42194720129001E-15
      2.50000000000000E-01
      0.00000000000000E+00   0.00000000000000E+00   0.00000000000000E+00   0.00000000000000E+00  -1.68586088359506E-14
      2.61613627046983E-42  -1.68586088359506E-14   2.02585470317191E-15   4.50000000000000E-01   4.50000000000000E-01
      0.00000000000000E+00   0.00000000000000E+00   0.00000000000000E+00   0.00000000000000E+00   0.00000000000000E+00
      1.53486799731485E-15  -1.80000000000000E+00  -1.80000000000000E+00   0.00000000000000E+00   0.00000000000000E+00
     -1.16243554423309E-18  -2.61629477390726E-42  -1.16243554423309E-18  -6.07947691509261E-15   4.50000000000000E-01
      4.50000000000000E-01   0.00000000000000E+00   0.00000000000000E+00   1.68597712714949E-14   1.58503437425623E-46
      1.68597712714949E-14   2.51875421460587E-15
      3.00000000000000E-01
      0.00000000000000E+00   0.00000000000000E+00   0.00000000000000E+00   0.00000000000000E+00  -1.69718974808900E-14
      1.59496715937308E-42  -1.69718974808900E-14   2.02585452212781E-15   4.50000000000000E-01   4.50000000000000E-01
      0.00000000000000E+00   0.00000000000000E+00   0.00000000000000E+00   0.00000000000000E+00   0.00000000000000E+00
      1.47956672756973E-15  -1.80000000000000E+00  -1.80000000000000E+00   0.00000000000000E+00   0.00000000000000E+00
     -1.72820725065271E-18  -1.59498907429447E-42  -1.72820725065271E-18  -6.11864173559878E-15   5.40000000000000E-01
      5.40000000000000E-01   0.00000000000000E+00   0.00000000000000E+00   1.69736256881407E-14   2.19149213905989E-47
      1.69736256881407E-14   2.61322048590123E-15
      3.50000000000000E-01
      0.00000000000000E+00   0.00000000000000E+00   0.00000000000000E+00   0.00000000000000E+00  -1.70847729703300E-14
      1.28783395927193E-42  -1.70847729703300E-14   2.02585434244249E-15   4.50000000000000E-01   4.50000000000000E-01
      0.00000000000000E+00   0.00000000000000E+00   0.00000000000000E+00   0.00000000000000E+00   0.00000000000000E+00
      1.42552244697093E-15  -1.80000000000000E+00  -1.80000000000000E+00   0.00000000000000E+00   0.00000000000000E+00
      1.73736851225295E-19  -1.28783532129079E-42   1.73736851225295E-19  -6.15679428922915E-15   6.30000000000000E-01
      6.30000000000000E-01   0.00000000000000E+00   0.00000000000000E+00   1.70845992334787E-14   1.36201885380917E-48
      1.70845992334787E-14   2.70541749981573E-15
      4.00000000000000E-01
      0.00000000000000E+00   0.00000000000000E+00   0.00000000000000E+00   0.00000000000000E+00  -1.71935268962608E-14
      1.92823973102444E-42  -1.71935268962608E-14   2.02585416312067E-15   4.50000000000000E-01   4.50000000000000E-01
      0.00000000000000E+00   0.00000000000000E+00   0.00000000000000E+00   0.00000000000000E+00   0.00000000000000E+00
      1.37247912315858E-15  -1.80000000000000E+00  -1.80000000000000E+00   0.00000000000000E+00   0.00000000000000E+00
     -6.21962737925300E-20  -1.92823975634474E-42  -6.21962737925300E-20  -6.19405055926578E-15   7.20000000000000E-01
      7.20000000000000E-01   0.00000000000000E+00   0.00000000000000E+00   1.71935890925346E-14   2.53203006765598E-50
      1.71935890925346E-14   2.79571727298653E-15
      4.50000000000000E-01
      0.00000000000000E+00   0.00000000000000E+00   0.00000000000000E+00   0.00000000000000E+00  -1.72978974315488E-14
      1.42378244686669E-42  -1.72978974315488E-14   2.02585398352173E-15   4.50000000000000E-01   4.50000000000000E-01
      0.00000000000000E+00   0.00000000000000E+00   0.00000000000000E+00   0.00000000000000E+00   0.00000000000000E+00
      1.32019941257183E-15  -1.80000000000000E+00  -1.80000000000000E+00   0.00000000000000E+00   0.00000000000000E+00
     -3.20799413693255E-18  -1.42378248915203E-42  -3.20799413693255E-18  -6.23058401488453E-15   8.10000000000000E-01
      8.10000000000000E-01   0.00000000000000E+00   0.00000000000000E+00   1.73011054256858E-14   4.22853344858383E-50
      1.73011054256858E-14   2.88453061879098E-15
      5.00000000000000E-01
      0.00000000000000E+00   0.00000000000000E+00   0.00000000000000E+00   0.00000000000000E+00  -1.74066052037287E-14
      2.37142823414101E-42  -1.74066052037287E-14   2.02585380356600E-15   4.50000000000000E-01   4.50000000000000E-01
      0.00000000000000E+00   0.00000000000000E+00   0.00000000000000E+00   0.00000000000000E+00   0.00000000000000E+00
      1.26865486657696E-15  -1.80000000000000E+00  -1.80000000000000E+00   0.00000000000000E+00   0.00000000000000E+00
     -6.38078755955653E-19  -2.37142824017726E-42  -6.38078755955653E-19  -6.26655409389994E-15   9.00000000000000E-01
      9.00000000000000E-01   0.00000000000000E+00   0.00000000000000E+00   1.74072432824847E-14   6.03624356338324E-51
      1.74072432824847E-14   2.97204542375697E-15
      5.50000000000000E-01
      0.00000000000000E+00   0.00000000000000E+00   0.00000000000000E+00   0.00000000000000E+00  -1.75112279450563E-14
      2.53397192644787E-42  -1.75112279450563E-14   2.02585362358438E-15   4.50000000000000E-01   4.50000000000000E-01
      0.00000000000000E+00   0.00000000000000E+00   0.00000000000000E+00   0.00000000000000E+00   0.00000000000000E+00
      1.21801862119448E-15  -1.80000000000000E+00  -1.80000000000000E+00   0.00000000000000E+00   0.00000000000000E+00
     -6.78174708473324E-19  -2.53397192745994E-42  -6.78174708473324E-19  -6.30205145430751E-15   9.90000000000000E-01
      9.90000000000000E-01   0.00000000000000E+00   0.00000000000000E+00   1.75119061197648E-14   1.01207450393077E-51
      1.75119061197648E-14   3.05817920952865E-15
      6.00000000000000E-01
      0.00000000000000E+00   0.00000000000000E+00   0.00000000000000E+00   0.00000000000000E+00  -1.76139105579596E-14
      1.86315323527783E-42  -1.76139105579596E-14   2.02585344420942E-15   4.50000000000000E-01   4.50000000000000E-01
      0.00000000000000E+00   0.00000000000000E+00   0.00000000000000E+00   0.00000000000000E+00   0.00000000000000E+00
      1.16860120404067E-15  -1.80000000000000E+00  -1.80000000000000E+00   0.00000000000000E+00   0.00000000000000E+00
     -8.71742356586162E-19  -1.86315323541391E-42  -8.71742356586162E-19  -6.33710433794283E-15   1.08000000000000E+00
      1.08000000000000E+00   0.00000000000000E+00   0.00000000000000E+00   1.76147823003162E-14   1.36077224273152E-52
      1.76147823003162E-14   3.14264968969275E-15
      6.50000000000000E-01
      0.00000000000000E+00   0.00000000000000E+00   0.00000000000000E+00   0.00000000000000E+00  -1.77156902395164E-14
      2.48930752981022E-42  -1.77156902395164E-14   2.02585326625806E-15   4.50000000000000E-01   4.50000000000000E-01
      0.00000000000000E+00   0.00000000000000E+00   0.00000000000000E+00   0.00000000000000E+00   0.00000000000000E+00
      1.12071692899968E-15  -1.80000000000000E+00  -1.80000000000000E+00   0.00000000000000E+00   0.00000000000000E+00
      2.43442646406729E-19  -2.48930752982549E-42   2.43442646406729E-19  -6.37171204617831E-15   1.17000000000000E+00
      1.17000000000000E+00   0.00000000000000E+00   0.00000000000000E+00   1.77154467968700E-14   1.52740380467427E-53
      1.77154467968700E-14   3.22514185092057E-15
      7.00000000000000E-01
      0.00000000000000E+00   0.00000000000000E+00   0.00000000000000E+00   0.00000000000000E+00  -1.78136794930678E-14
      2.83818673652846E-42  -1.78136794930678E-14   2.02585309023944E-15   4.50000000000000E-01   4.50000000000000E-01
      0.00000000000000E+00   0.00000000000000E+00   0.00000000000000E+00   0.00000000000000E+00   0.00000000000000E+00
      1.07439750107619E-15  -1.80000000000000E+00  -1.80000000000000E+00   0.00000000000000E+00   0.00000000000000E+00
     -3.28338712876651E-20  -2.83818673653052E-42  -3.28338712876651E-20  -6.40588099697836E-15   1.26000000000000E+00
      1.26000000000000E+00   0.00000000000000E+00   0.00000000000000E+00   1.78137123269391E-14   2.06065669993081E-54
      1.78137123269391E-14   3.30563040566272E-15
      7.50000000000000E-01
      0.00000000000000E+00   0.00000000000000E+00   0.00000000000000E+00   0.00000000000000E+00  -1.79095170571267E-14
      1.66352448180088E-42  -1.79095170571267E-14   2.02585291600759E-15   4.50000000000000E-01   4.50000000000000E-01
      0.00000000000000E+00   0.00000000000000E+00   0.00000000000000E+00   0.00000000000000E+00   0.00000000000000E+00
      1.02930812850696E-15  -1.80000000000000E+00  -1.80000000000000E+00   0.00000000000000E+00   0.00000000000000E+00
     -2.44065183123153E-19  -1.66352448180112E-42  -2.44065183123153E-19  -6.43964254394066E-15   1.35000000000000E+00
      1.35000000000000E+00   0.00000000000000E+00   0.00000000000000E+00   1.79097611223098E-14   2.42696049703331E-55
      1.79097611223098E-14   3.38448149942610E-15
      8.00000000000000E-01
      0.00000000000000E+00   0.00000000000000E+00   0.00000000000000E+00   0.00000000000000E+00  -1.80017135829531E-14
      1.91213586780553E-42  -1.80017135829531E-14   2.02585274363336E-15   4.50000000000000E-01   4.50000000000000E-01
      0.00000000000000E+00   0.00000000000000E+00   0.00000000000000E+00   0.00000000000000E+00   0.00000000000000E+00
      9.85160965120774E-16  -1.80000000000000E+00  -1.80000000000000E+00   0.00000000000000E+00   0.00000000000000E+00
     -1.93634647505639E-18  -1.91213586780559E-42  -1.93634647505639E-18  -6.47302997756608E-15   1.44000000000000E+00
      1.44000000000000E+00   0.00000000000000E+00   0.00000000000000E+00   1.80036499294282E-14   6.50085645186835E-56
      1.80036499294282E-14   3.46201626881195E-15
      8.50000000000000E-01
      0.00000000000000E+00   0.00000000000000E+00   0.00000000000000E+00   0.00000000000000E+00  -1.80928723166031E-14
      2.88925191391905E-42  -1.80928723166031E-14   2.02585257407923E-15   4.50000000000000E-01   4.50000000000000E-01
      0.00000000000000E+00   0.00000000000000E+00   0.00000000000000E+00   0.00000000000000E+00   0.00000000000000E+00
      9.41941030047050E-16  -1.80000000000000E+00  -1.80000000000000E+00   0.00000000000000E+00   0.00000000000000E+00
     -2.05418472534355E-18  -2.88925191391905E-42  -2.05418472534355E-18  -6.50605274126585E-15   1.53000000000000E+00
      1.53000000000000E+00   0.00000000000000E+00   0.00000000000000E+00   1.80949265013284E-14   5.80274783358287E-57
      1.80949265013284E-14   3.53825913713957E-15
      9.00000000000000E-01
      0.00000000000000E+00   0.00000000000000E+00   0.00000000000000E+00   0.00000000000000E+00  -1.81813087852859E-14
      3.13877192526859E-42  -1.81813087852859E-14   2.02585240845476E-15   4.50000000000000E-01   4.50000000000000E-01
      0.00000000000000E+00   0.00000000000000E+00   0.00000000000000E+00   0.00000000000000E+00   0.00000000000000E+00
      8.99733668871031E-16  -1.80000000000000E+00  -1.80000000000000E+00   0.00000000000000E+00   0.00000000000000E+00
     -1.75935211509262E-18  -3.13877192526859E-42  -1.75935211509262E-18  -6.53870645360991E-15   1.62000000000000E+00
      1.62000000000000E+00   0.00000000000000E+00   0.00000000000000E+00   1.81830681374010E-14   5.92327150014021E-58
      1.81830681374010E-14   3.61312037628413E-15
      9.50000000000000E-01
      0.00000000000000E+00   0.00000000000000E+00   0.00000000000000E+00   0.00000000000000E+00  -1.82700565600919E-14
      1.26968394121186E-42  -1.82700565600919E-14   2.02585224613957E-15   4.50000000000000E-01   4.50000000000000E-01
      0.00000000000000E+00   0.00000000000000E+00   0.00000000000000E+00   0.00000000000000E+00   0.00000000000000E+00
      8.58440159224016E-16  -1.80000000000000E+00  -1.80000000000000E+00   0.00000000000000E+00   0.00000000000000E+00
      1.54373282983433E-18  -1.26968394121186E-42   1.54373282983433E-18  -6.57101459472581E-15   1.71000000000000E+00
      1.71000000000000E+00   0.00000000000000E+00   0.00000000000000E+00   1.82685128272621E-14   9.62663423736540E-59
      1.82685128272621E-14   3.68672218936223E-15
      1.00000000000000E+00
      0.00000000000000E+00   0.00000000000000E+00   0.00000000000000E+00   0.00000000000000E+00  -1.83536955043180E-14
      2.36937619268209E-42  -1.83536955043180E-14   2.02585208493681E-15   4.50000000000000E-01   4.50000000000000E-01
      0.00000000000000E+00   0.00000000000000E+00   0.00000000000000E+00   0.00000000000000E+00   0.00000000000000E+00
      8.17778509151007E-16  -1.80000000000000E+00  -1.80000000000000E+00   0.00000000000000E+00   0.00000000000000E+00
      1.16446823791007E-18  -2.36937619268209E-42   1.16446823791007E-18  -6.60302996953135E-15   1.80000000000000E+00
      1.80000000000000E+00   0.00000000000000E+00   0.00000000000000E+00   1.83525310360801E-14   6.67518340348480E-60
      1.83525310360801E-14   3.75939937544354E-15
}
