DF-ISE text

Info {
  version   = 1.0
  type      = xyplot
  datasets  = [
    "time"
    "source OuterVoltage" "source InnerVoltage" "source QuasiFermiPotential" "source DisplacementCurrent" "source eCurrent"
    "source hCurrent" "source TotalCurrent" "source Charge" "gate OuterVoltage" "gate InnerVoltage"
    "gate QuasiFermiPotential" "gate DisplacementCurrent" "gate eCurrent" "gate hCurrent" "gate TotalCurrent"
    "gate Charge" "substrate OuterVoltage" "substrate InnerVoltage" "substrate QuasiFermiPotential" "substrate DisplacementCurrent"
    "substrate eCurrent" "substrate hCurrent" "substrate TotalCurrent" "substrate Charge" "drain OuterVoltage"
    "drain InnerVoltage" "drain QuasiFermiPotential" "drain DisplacementCurrent" "drain eCurrent" "drain hCurrent"
    "drain TotalCurrent" "drain Charge" ]
  functions = [
    Time
    OuterVoltage InnerVoltage QuasiFermiPotential DisplacementCurrent eCurrent
    hCurrent TotalCurrent Charge OuterVoltage InnerVoltage
    QuasiFermiPotential DisplacementCurrent eCurrent hCurrent TotalCurrent
    Charge OuterVoltage InnerVoltage QuasiFermiPotential DisplacementCurrent
    eCurrent hCurrent TotalCurrent Charge OuterVoltage
    InnerVoltage QuasiFermiPotential DisplacementCurrent eCurrent hCurrent
    TotalCurrent Charge ]
}

Data {
      5.00000000000000E-02
      0.00000000000000E+00   0.00000000000000E+00   0.00000000000000E+00   0.00000000000000E+00  -3.18912557844248E-06
     -2.53319904934467E-25  -3.18912557844248E-06   7.94933552029885E-16   9.00000000000000E-01   9.00000000000000E-01
      0.00000000000000E+00   0.00000000000000E+00   0.00000000000000E+00   0.00000000000000E+00   0.00000000000000E+00
      4.91039725143754E-15   0.00000000000000E+00   0.00000000000000E+00   0.00000000000000E+00   0.00000000000000E+00
     -1.94989644064204E-18   2.84617075654755E-25  -1.94989615602497E-18  -6.59480295554578E-15   9.00000000000000E-02
      9.00000000000000E-02   0.00000000000000E+00   0.00000000000000E+00   3.18912557844444E-06  -3.12971707202886E-26
      3.18912557844444E-06   8.89472152078355E-16
      1.00000000000000E-01
      0.00000000000000E+00   0.00000000000000E+00   0.00000000000000E+00   0.00000000000000E+00  -4.06004459984040E-06
     -2.04230586387723E-25  -4.06004459984040E-06   7.94946579683655E-16   9.00000000000000E-01   9.00000000000000E-01
      0.00000000000000E+00   0.00000000000000E+00   0.00000000000000E+00   0.00000000000000E+00   0.00000000000000E+00
      4.67720760276546E-15   0.00000000000000E+00   0.00000000000000E+00   0.00000000000000E+00   0.00000000000000E+00
     -4.81449852204385E-18   2.07766663142219E-25  -4.81449831427718E-18  -6.45617284868863E-15   1.80000000000000E-01
      1.80000000000000E-01   0.00000000000000E+00   0.00000000000000E+00   4.06004459984522E-06  -3.53607675449565E-27
      4.06004459984522E-06   9.84018666239521E-16
      1.50000000000000E-01
      0.00000000000000E+00   0.00000000000000E+00   0.00000000000000E+00   0.00000000000000E+00  -4.14125998325451E-06
     -2.05501871715845E-25  -4.14125998325451E-06   7.94947783823641E-16   9.00000000000000E-01   9.00000000000000E-01
      0.00000000000000E+00   0.00000000000000E+00   0.00000000000000E+00   0.00000000000000E+00   0.00000000000000E+00
      4.55267482603420E-15   0.00000000000000E+00   0.00000000000000E+00   0.00000000000000E+00   0.00000000000000E+00
      1.55868984348295E-18   2.05918784496942E-25   1.55869004940174E-18  -6.42865259944244E-15   2.70000000000000E-01
      2.70000000000000E-01   0.00000000000000E+00   0.00000000000000E+00   4.14125998325295E-06  -4.16912781096564E-28
      4.14125998325295E-06   1.08102998958459E-15
      2.00000000000000E-01
      0.00000000000000E+00   0.00000000000000E+00   0.00000000000000E+00   0.00000000000000E+00  -4.15384362182093E-06
     -2.38294680540077E-25  -4.15384362182093E-06   7.94947970229005E-16   9.00000000000000E-01   9.00000000000000E-01
      0.00000000000000E+00   0.00000000000000E+00   0.00000000000000E+00   0.00000000000000E+00   0.00000000000000E+00
      4.45647000651415E-15   0.00000000000000E+00   0.00000000000000E+00   0.00000000000000E+00   0.00000000000000E+00
     -1.43116739591940E-18   2.38345171643896E-25  -1.43116715757422E-18  -6.43413722923437E-15   3.60000000000000E-01
      3.60000000000000E-01   0.00000000000000E+00   0.00000000000000E+00   4.15384362182236E-06  -5.04911038179721E-29
      4.15384362182236E-06   1.18271925249122E-15
      2.50000000000000E-01
      0.00000000000000E+00   0.00000000000000E+00   0.00000000000000E+00   0.00000000000000E+00  -4.16288598994719E-06
     -1.92910818852012E-25  -4.16288598994719E-06   7.94948104148888E-16   9.00000000000000E-01   9.00000000000000E-01
      0.00000000000000E+00   0.00000000000000E+00   0.00000000000000E+00   0.00000000000000E+00   0.00000000000000E+00
      4.37322573679276E-15   0.00000000000000E+00   0.00000000000000E+00   0.00000000000000E+00   0.00000000000000E+00
     -1.13164885028809E-13   1.92917114318519E-25  -1.13164885028616E-13  -6.45848957518281E-15   4.50000000000000E-01
      4.50000000000000E-01   0.00000000000000E+00   0.00000000000000E+00   4.16288610311208E-06  -6.29546650693689E-30
      4.16288610311208E-06   1.29031573424117E-15
      3.00000000000000E-01
      0.00000000000000E+00   0.00000000000000E+00   0.00000000000000E+00   0.00000000000000E+00  -4.17057968374981E-06
     -2.03733374478708E-25  -4.17057968374981E-06   7.94948218076404E-16   9.00000000000000E-01   9.00000000000000E-01
      0.00000000000000E+00   0.00000000000000E+00   0.00000000000000E+00   0.00000000000000E+00   0.00000000000000E+00
      4.30006906583144E-15   0.00000000000000E+00   0.00000000000000E+00   0.00000000000000E+00   0.00000000000000E+00
      5.24851898300394E-16   2.03734071594188E-25   5.24851898504128E-16  -6.49810563984272E-15   5.40000000000000E-01
      5.40000000000000E-01   0.00000000000000E+00   0.00000000000000E+00   4.17057968322496E-06  -6.97115479655018E-31
      4.17057968322496E-06   1.40308835593488E-15
      3.50000000000000E-01
      0.00000000000000E+00   0.00000000000000E+00   0.00000000000000E+00   0.00000000000000E+00  -4.17740295054263E-06
     -2.15998349727523E-25  -4.17740295054263E-06   7.94948319100757E-16   9.00000000000000E-01   9.00000000000000E-01
      0.00000000000000E+00   0.00000000000000E+00   0.00000000000000E+00   0.00000000000000E+00   0.00000000000000E+00
      4.23347626933788E-15   0.00000000000000E+00   0.00000000000000E+00   0.00000000000000E+00   0.00000000000000E+00
      1.61023914767431E-18   2.15998463410114E-25   1.61023936367277E-18  -6.54599765314869E-15   6.30000000000000E-01
      6.30000000000000E-01   0.00000000000000E+00   0.00000000000000E+00   4.17740295054102E-06  -1.13682590645133E-31
      4.17740295054102E-06   1.51757306471005E-15
      4.00000000000000E-01
      0.00000000000000E+00   0.00000000000000E+00   0.00000000000000E+00   0.00000000000000E+00  -4.18367678443936E-06
     -2.03944464719266E-25  -4.18367678443936E-06   7.94948411978699E-16   9.00000000000000E-01   9.00000000000000E-01
      0.00000000000000E+00   0.00000000000000E+00   0.00000000000000E+00   0.00000000000000E+00   0.00000000000000E+00
      4.17021873379505E-15   0.00000000000000E+00   0.00000000000000E+00   0.00000000000000E+00   0.00000000000000E+00
     -3.04163720939640E-16   2.03944481810999E-25  -3.04163720735695E-16  -6.59623421098695E-15   7.20000000000000E-01
      7.20000000000000E-01   0.00000000000000E+00   0.00000000000000E+00   4.18367678474352E-06  -1.70917330164808E-32
      4.18367678474352E-06   1.63106706521320E-15
      4.50000000000000E-01
      0.00000000000000E+00   0.00000000000000E+00   0.00000000000000E+00   0.00000000000000E+00  -4.18961238666539E-06
     -2.02372345183762E-25  -4.18961238666539E-06   7.94948499839233E-16   9.00000000000000E-01   9.00000000000000E-01
      0.00000000000000E+00   0.00000000000000E+00   0.00000000000000E+00   0.00000000000000E+00   0.00000000000000E+00
      4.10898635597804E-15   0.00000000000000E+00   0.00000000000000E+00   0.00000000000000E+00   0.00000000000000E+00
      5.14704829014601E-18   2.02372347682281E-25   5.14704849251836E-18  -6.64646412381001E-15   8.10000000000000E-01
      8.10000000000000E-01   0.00000000000000E+00   0.00000000000000E+00   4.18961238666024E-06  -2.49851901681292E-33
      4.18961238666024E-06   1.74252926799274E-15
      5.00000000000000E-01
      0.00000000000000E+00   0.00000000000000E+00   0.00000000000000E+00   0.00000000000000E+00  -4.19528729891276E-06
     -2.03038338516911E-25  -4.19528729891276E-06   7.94948583831665E-16   9.00000000000000E-01   9.00000000000000E-01
      0.00000000000000E+00   0.00000000000000E+00   0.00000000000000E+00   0.00000000000000E+00   0.00000000000000E+00
      4.04970238877112E-15   0.00000000000000E+00   0.00000000000000E+00   0.00000000000000E+00   0.00000000000000E+00
      2.37674413203425E-18   2.03038338750555E-25   2.37674433507259E-18  -6.69608848090358E-15   9.00000000000000E-01
      9.00000000000000E-01   0.00000000000000E+00   0.00000000000000E+00   4.19528729891038E-06  -2.33644187101906E-34
      4.19528729891038E-06   1.85143750830078E-15
      5.50000000000000E-01
      0.00000000000000E+00   0.00000000000000E+00   0.00000000000000E+00   0.00000000000000E+00  -4.20073495416584E-06
     -1.89394169235097E-25  -4.20073495416584E-06   7.94948664451996E-16   9.00000000000000E-01   9.00000000000000E-01
      0.00000000000000E+00   0.00000000000000E+00   0.00000000000000E+00   0.00000000000000E+00   0.00000000000000E+00
      3.99232487499825E-15   0.00000000000000E+00   0.00000000000000E+00   0.00000000000000E+00   0.00000000000000E+00
     -8.21022212717327E-18   1.89394169291485E-25  -8.21022193777910E-18  -6.74499877153623E-15   9.90000000000000E-01
      9.90000000000000E-01   0.00000000000000E+00   0.00000000000000E+00   4.20073495417406E-06  -5.63872207089316E-35
      4.20073495417406E-06   1.95772523208597E-15
      6.00000000000000E-01
      0.00000000000000E+00   0.00000000000000E+00   0.00000000000000E+00   0.00000000000000E+00  -4.20597323965286E-06
     -2.06725898224122E-25  -4.20597323965286E-06   7.94948741965946E-16   9.00000000000000E-01   9.00000000000000E-01
      0.00000000000000E+00   0.00000000000000E+00   0.00000000000000E+00   0.00000000000000E+00   0.00000000000000E+00
      3.93648641374586E-15   0.00000000000000E+00   0.00000000000000E+00   0.00000000000000E+00   0.00000000000000E+00
     -2.86735702372438E-18   2.06725898229599E-25  -2.86735681699848E-18  -6.79318938593303E-15   1.08000000000000E+00
      1.08000000000000E+00   0.00000000000000E+00   0.00000000000000E+00   4.20597323965573E-06  -5.47708427068764E-36
      4.20597323965573E-06   2.06175423022123E-15
      6.50000000000000E-01
      0.00000000000000E+00   0.00000000000000E+00   0.00000000000000E+00   0.00000000000000E+00  -4.21099550499581E-06
     -1.88724127474027E-25  -4.21099550499581E-06   7.94948816276189E-16   9.00000000000000E-01   9.00000000000000E-01
      0.00000000000000E+00   0.00000000000000E+00   0.00000000000000E+00   0.00000000000000E+00   0.00000000000000E+00
      3.88198662514199E-15   0.00000000000000E+00   0.00000000000000E+00   0.00000000000000E+00   0.00000000000000E+00
      2.73085431083350E-18   1.88724127474603E-25   2.73085449955763E-18  -6.84067384505350E-15   1.17000000000000E+00
      1.17000000000000E+00   0.00000000000000E+00   0.00000000000000E+00   4.21099550499308E-06  -5.75903217356182E-37
      4.21099550499308E-06   2.16373840363533E-15
      7.00000000000000E-01
      0.00000000000000E+00   0.00000000000000E+00   0.00000000000000E+00   0.00000000000000E+00  -4.21577498766690E-06
     -2.10435494842231E-25  -4.21577498766690E-06   7.94948886987432E-16   9.00000000000000E-01   9.00000000000000E-01
      0.00000000000000E+00   0.00000000000000E+00   0.00000000000000E+00   0.00000000000000E+00   0.00000000000000E+00
      3.82894068386112E-15   0.00000000000000E+00   0.00000000000000E+00   0.00000000000000E+00   0.00000000000000E+00
      8.28552005894446E-18   2.10435494842356E-25   8.28552026937996E-18  -6.88745872262739E-15   1.26000000000000E+00
      1.26000000000000E+00   0.00000000000000E+00   0.00000000000000E+00   4.21577498765861E-06  -1.24876525678565E-37
      4.21577498765861E-06   2.26356915177885E-15
      7.50000000000000E-01
      0.00000000000000E+00   0.00000000000000E+00   0.00000000000000E+00   0.00000000000000E+00  -4.22029668474686E-06
     -2.07838827191116E-25  -4.22029668474686E-06   7.94948953878864E-16   9.00000000000000E-01   9.00000000000000E-01
      0.00000000000000E+00   0.00000000000000E+00   0.00000000000000E+00   0.00000000000000E+00   0.00000000000000E+00
      3.77738818447768E-15   0.00000000000000E+00   0.00000000000000E+00   0.00000000000000E+00   0.00000000000000E+00
     -4.25441035297601E-18   2.07838827191135E-25  -4.25441014513718E-18  -6.93355335017342E-15   1.35000000000000E+00
      1.35000000000000E+00   0.00000000000000E+00   0.00000000000000E+00   4.22029668475111E-06  -1.91784468833051E-38
      4.22029668475111E-06   2.36121621181688E-15
      8.00000000000000E-01
      0.00000000000000E+00   0.00000000000000E+00   0.00000000000000E+00   0.00000000000000E+00  -4.22458870085528E-06
     -2.05671850134966E-25  -4.22458870085528E-06   7.94949017367182E-16   9.00000000000000E-01   9.00000000000000E-01
      0.00000000000000E+00   0.00000000000000E+00   0.00000000000000E+00   0.00000000000000E+00   0.00000000000000E+00
      3.72707908455206E-15   0.00000000000000E+00   0.00000000000000E+00   0.00000000000000E+00   0.00000000000000E+00
     -1.03265708724882E-18   2.05671850134967E-25  -1.03265688157697E-18  -6.97898898051377E-15   1.44000000000000E+00
      1.44000000000000E+00   0.00000000000000E+00   0.00000000000000E+00   4.22458870085632E-06  -1.25357893919483E-39
      4.22458870085632E-06   2.45696087859453E-15
      8.50000000000000E-01
      0.00000000000000E+00   0.00000000000000E+00   0.00000000000000E+00   0.00000000000000E+00  -4.22870963287409E-06
     -2.26064067686551E-25  -4.22870963287409E-06   7.94949078319894E-16   9.00000000000000E-01   9.00000000000000E-01
      0.00000000000000E+00   0.00000000000000E+00   0.00000000000000E+00   0.00000000000000E+00   0.00000000000000E+00
      3.67772707270249E-15   0.00000000000000E+00   0.00000000000000E+00   0.00000000000000E+00   0.00000000000000E+00
     -8.28107057056284E-18   2.26064067686552E-25  -8.28107034449877E-18  -7.02381748642520E-15   1.53000000000000E+00
      1.53000000000000E+00   0.00000000000000E+00   0.00000000000000E+00   4.22870963288237E-06  -9.93336812568333E-40
      4.22870963288237E-06   2.55114133540281E-15
      9.00000000000000E-01
      0.00000000000000E+00   0.00000000000000E+00   0.00000000000000E+00   0.00000000000000E+00  -4.23271676013682E-06
     -2.22322411246097E-25  -4.23271676013682E-06   7.94949137584719E-16   9.00000000000000E-01   9.00000000000000E-01
      0.00000000000000E+00   0.00000000000000E+00   0.00000000000000E+00   0.00000000000000E+00   0.00000000000000E+00
      3.62917454864776E-15   0.00000000000000E+00   0.00000000000000E+00   0.00000000000000E+00   0.00000000000000E+00
     -1.98400333221560E-18   2.22322411246097E-25  -1.98400310989319E-18  -7.06809180054271E-15   1.62000000000000E+00
      1.62000000000000E+00   0.00000000000000E+00   0.00000000000000E+00   4.23271676013880E-06   1.71577866775863E-41
      4.23271676013880E-06   2.64396811431024E-15
      9.50000000000000E-01
      0.00000000000000E+00   0.00000000000000E+00   0.00000000000000E+00   0.00000000000000E+00  -4.23664563017407E-06
     -2.22911800460167E-25  -4.23664563017407E-06   7.94949195687725E-16   9.00000000000000E-01   9.00000000000000E-01
      0.00000000000000E+00   0.00000000000000E+00   0.00000000000000E+00   0.00000000000000E+00   0.00000000000000E+00
      3.58134073899256E-15   0.00000000000000E+00   0.00000000000000E+00   0.00000000000000E+00   0.00000000000000E+00
      2.87106987506440E-18   2.22911800460168E-25   2.87107009797620E-18  -7.11183567754119E-15   1.71000000000000E+00
      1.71000000000000E+00   0.00000000000000E+00   0.00000000000000E+00   4.23664563017120E-06  -2.45733084378564E-41
      4.23664563017120E-06   2.73554574286091E-15
      1.00000000000000E+00
      0.00000000000000E+00   0.00000000000000E+00   0.00000000000000E+00   0.00000000000000E+00  -4.24051121928373E-06
     -2.01936066817693E-25  -4.24051121928373E-06   7.94949252850627E-16   9.00000000000000E-01   9.00000000000000E-01
      0.00000000000000E+00   0.00000000000000E+00   0.00000000000000E+00   0.00000000000000E+00   0.00000000000000E+00
      3.53417108331750E-15   0.00000000000000E+00   0.00000000000000E+00   0.00000000000000E+00   0.00000000000000E+00
     -1.32686001021120E-18   2.01936066817693E-25  -1.32685980827513E-18  -7.15504810364552E-15   1.80000000000000E+00
      1.80000000000000E+00   0.00000000000000E+00   0.00000000000000E+00   4.24051121928505E-06   7.27372800826227E-43
      4.24051121928505E-06   2.82592776747740E-15
}
