DF-ISE text

Info {
  version   = 1.0
  type      = xyplot
  datasets  = [
    "time"
    "source OuterVoltage" "source InnerVoltage" "source QuasiFermiPotential" "source DisplacementCurrent" "source eCurrent"
    "source hCurrent" "source TotalCurrent" "source Charge" "gate OuterVoltage" "gate InnerVoltage"
    "gate QuasiFermiPotential" "gate DisplacementCurrent" "gate eCurrent" "gate hCurrent" "gate TotalCurrent"
    "gate Charge" "substrate OuterVoltage" "substrate InnerVoltage" "substrate QuasiFermiPotential" "substrate DisplacementCurrent"
    "substrate eCurrent" "substrate hCurrent" "substrate TotalCurrent" "substrate Charge" "drain OuterVoltage"
    "drain InnerVoltage" "drain QuasiFermiPotential" "drain DisplacementCurrent" "drain eCurrent" "drain hCurrent"
    "drain TotalCurrent" "drain Charge" ]
  functions = [
    Time
    OuterVoltage InnerVoltage QuasiFermiPotential DisplacementCurrent eCurrent
    hCurrent TotalCurrent Charge OuterVoltage InnerVoltage
    QuasiFermiPotential DisplacementCurrent eCurrent hCurrent TotalCurrent
    Charge OuterVoltage InnerVoltage QuasiFermiPotential DisplacementCurrent
    eCurrent hCurrent TotalCurrent Charge OuterVoltage
    InnerVoltage QuasiFermiPotential DisplacementCurrent eCurrent hCurrent
    TotalCurrent Charge ]
}

Data {
      5.00000000000000E-02
      0.00000000000000E+00   0.00000000000000E+00   0.00000000000000E+00   0.00000000000000E+00  -1.66886356672297E-05
     -2.08388901175213E-25  -1.66886356672297E-05   6.58769247158955E-16   1.35000000000000E+00   1.35000000000000E+00
      0.00000000000000E+00   0.00000000000000E+00   0.00000000000000E+00   0.00000000000000E+00   0.00000000000000E+00
      9.93096667112204E-15   0.00000000000000E+00   0.00000000000000E+00   0.00000000000000E+00   0.00000000000000E+00
     -1.00126566876157E-17   2.36546597157163E-25  -1.00126564510691E-17  -1.13377550019210E-14   9.00000000000000E-02
      9.00000000000000E-02   0.00000000000000E+00   0.00000000000000E+00   1.66886356672397E-05  -2.81576959819493E-26
      1.66886356672397E-05   7.48019083640022E-16
      1.00000000000000E-01
      0.00000000000000E+00   0.00000000000000E+00   0.00000000000000E+00   0.00000000000000E+00  -2.96348299262296E-05
     -2.05873140170428E-25  -2.96348299262296E-05   6.59075800798213E-16   1.35000000000000E+00   1.35000000000000E+00
      0.00000000000000E+00   0.00000000000000E+00   0.00000000000000E+00   0.00000000000000E+00   0.00000000000000E+00
      9.45322801488463E-15   0.00000000000000E+00   0.00000000000000E+00   0.00000000000000E+00   0.00000000000000E+00
      3.90446722903381E-18   2.09216480531204E-25   3.90446743825029E-18  -1.09477899608691E-14   1.80000000000000E-01
      1.80000000000000E-01   0.00000000000000E+00   0.00000000000000E+00   2.96348299262257E-05  -3.34334036077612E-27
      2.96348299262257E-05   8.35486145186267E-16
      1.50000000000000E-01
      0.00000000000000E+00   0.00000000000000E+00   0.00000000000000E+00   0.00000000000000E+00  -3.91135653342989E-05
     -2.05404012935090E-25  -3.91135653342989E-05   6.59296051385368E-16   1.35000000000000E+00   1.35000000000000E+00
      0.00000000000000E+00   0.00000000000000E+00   0.00000000000000E+00   0.00000000000000E+00   0.00000000000000E+00
      9.02295171833625E-15   0.00000000000000E+00   0.00000000000000E+00   0.00000000000000E+00   0.00000000000000E+00
      1.63486988458286E-18   2.05827264703119E-25   1.63487009041012E-18  -1.06038192415925E-14   2.70000000000000E-01
      2.70000000000000E-01   0.00000000000000E+00   0.00000000000000E+00   3.91135653342973E-05  -4.23251768028381E-28
      3.91135653342973E-05   9.21571471870883E-16
      2.00000000000000E-01
      0.00000000000000E+00   0.00000000000000E+00   0.00000000000000E+00   0.00000000000000E+00  -4.54615125157861E-05
     -2.10101085537683E-25  -4.54615125157861E-05   6.59441424248024E-16   1.35000000000000E+00   1.35000000000000E+00
      0.00000000000000E+00   0.00000000000000E+00   0.00000000000000E+00   0.00000000000000E+00   0.00000000000000E+00
      8.65503343792008E-15   0.00000000000000E+00   0.00000000000000E+00   0.00000000000000E+00   0.00000000000000E+00
      5.52947183098309E-18   2.10158416280418E-25   5.52947204114151E-18  -1.03213703842850E-14   3.60000000000000E-01
      3.60000000000000E-01   0.00000000000000E+00   0.00000000000000E+00   4.54615125157806E-05  -5.73307427343801E-29
      4.54615125157806E-05   1.00689552211692E-15
      2.50000000000000E-01
      0.00000000000000E+00   0.00000000000000E+00   0.00000000000000E+00   0.00000000000000E+00  -4.91183506021389E-05
     -2.07102380282874E-25  -4.91183506021389E-05   6.59524355789443E-16   1.35000000000000E+00   1.35000000000000E+00
      0.00000000000000E+00   0.00000000000000E+00   0.00000000000000E+00   0.00000000000000E+00   0.00000000000000E+00
      8.36464386651612E-15   0.00000000000000E+00   0.00000000000000E+00   0.00000000000000E+00   0.00000000000000E+00
     -5.91177134935157E-17   2.07107841627925E-25  -5.91177132864078E-17  -1.01162476490242E-14   4.50000000000000E-01
      4.50000000000000E-01   0.00000000000000E+00   0.00000000000000E+00   4.91183506021980E-05  -5.46134505045427E-30
      4.91183506021980E-05   1.09207942671859E-15
      3.00000000000000E-01
      0.00000000000000E+00   0.00000000000000E+00   0.00000000000000E+00   0.00000000000000E+00  -5.07479613352904E-05
     -2.03012206526011E-25  -5.07479613352904E-05   6.59561116076633E-16   1.35000000000000E+00   1.35000000000000E+00
      0.00000000000000E+00   0.00000000000000E+00   0.00000000000000E+00   0.00000000000000E+00   0.00000000000000E+00
      8.15747800634454E-15   0.00000000000000E+00   0.00000000000000E+00   0.00000000000000E+00   0.00000000000000E+00
      1.38794677602595E-18   2.03013182061684E-25   1.38794697903913E-18  -9.99502669028560E-15   5.40000000000000E-01
      5.40000000000000E-01   0.00000000000000E+00   0.00000000000000E+00   5.07479613352890E-05  -9.75535673252818E-31
      5.07479613352890E-05   1.17798756786442E-15
      3.50000000000000E-01
      0.00000000000000E+00   0.00000000000000E+00   0.00000000000000E+00   0.00000000000000E+00  -5.12809033803952E-05
     -1.93928225837349E-25  -5.12809033803952E-05   6.59573111329318E-16   1.35000000000000E+00   1.35000000000000E+00
      0.00000000000000E+00   0.00000000000000E+00   0.00000000000000E+00   0.00000000000000E+00   0.00000000000000E+00
      8.01458430296174E-15   0.00000000000000E+00   0.00000000000000E+00   0.00000000000000E+00   0.00000000000000E+00
      4.34768780783050E-18   1.93928326307817E-25   4.34768800175883E-18  -9.94002705304537E-15   6.30000000000000E-01
      6.30000000000000E-01   0.00000000000000E+00   0.00000000000000E+00   5.12809033803909E-05  -1.00470467418348E-31
      5.12809033803909E-05   1.26586963875430E-15
      4.00000000000000E-01
      0.00000000000000E+00   0.00000000000000E+00   0.00000000000000E+00   0.00000000000000E+00  -5.14960810129872E-05
     -2.04640874844091E-25  -5.14960810129872E-05   6.59577950713317E-16   1.35000000000000E+00   1.35000000000000E+00
      0.00000000000000E+00   0.00000000000000E+00   0.00000000000000E+00   0.00000000000000E+00   0.00000000000000E+00
      7.90161996340770E-15   0.00000000000000E+00   0.00000000000000E+00   0.00000000000000E+00   0.00000000000000E+00
      7.17528701621401E-18   2.04640884647079E-25   7.17528722085490E-18  -9.91813394661235E-15   7.20000000000000E-01
      7.20000000000000E-01   0.00000000000000E+00   0.00000000000000E+00   5.14960810129800E-05  -9.80298783575450E-33
      5.14960810129800E-05   1.35693603249133E-15
      4.50000000000000E-01
      0.00000000000000E+00   0.00000000000000E+00   0.00000000000000E+00   0.00000000000000E+00  -5.16379953308786E-05
     -2.08490632295769E-25  -5.16379953308786E-05   6.59581141208845E-16   1.35000000000000E+00   1.35000000000000E+00
      0.00000000000000E+00   0.00000000000000E+00   0.00000000000000E+00   0.00000000000000E+00   0.00000000000000E+00
      7.80369488291857E-15   0.00000000000000E+00   0.00000000000000E+00   0.00000000000000E+00   0.00000000000000E+00
      8.07286596905914E-18   2.08490634487321E-25   8.07286617754977E-18  -9.91547009055711E-15   8.10000000000000E-01
      8.10000000000000E-01   0.00000000000000E+00   0.00000000000000E+00   5.16379953308705E-05  -2.19155195943011E-33
      5.16379953308705E-05   1.45219406642969E-15
      5.00000000000000E-01
      0.00000000000000E+00   0.00000000000000E+00   0.00000000000000E+00   0.00000000000000E+00  -5.17489860012299E-05
     -1.90271897175523E-25  -5.17489860012299E-05   6.59583635827620E-16   1.35000000000000E+00   1.35000000000000E+00
      0.00000000000000E+00   0.00000000000000E+00   0.00000000000000E+00   0.00000000000000E+00   0.00000000000000E+00
      7.71755472903749E-15   0.00000000000000E+00   0.00000000000000E+00   0.00000000000000E+00   0.00000000000000E+00
      1.29791109702389E-17   1.90271897421411E-25   1.29791111605108E-17  -9.92958774632580E-15   9.00000000000000E-01
      9.00000000000000E-01   0.00000000000000E+00   0.00000000000000E+00   5.17489860012169E-05  -2.45887654057588E-34
      5.17489860012169E-05   1.55244938146069E-15
      5.50000000000000E-01
      0.00000000000000E+00   0.00000000000000E+00   0.00000000000000E+00   0.00000000000000E+00  -5.18420487808507E-05
     -1.94745433690076E-25  -5.18420487808507E-05   6.59585727056086E-16   1.35000000000000E+00   1.35000000000000E+00
      0.00000000000000E+00   0.00000000000000E+00   0.00000000000000E+00   0.00000000000000E+00   0.00000000000000E+00
      7.64136946465115E-15   0.00000000000000E+00   0.00000000000000E+00   0.00000000000000E+00   0.00000000000000E+00
      2.85735843886011E-16   1.94745433705701E-25   2.85735844080757E-16  -9.95866987035654E-15   9.90000000000000E-01
      9.90000000000000E-01   0.00000000000000E+00   0.00000000000000E+00   5.18420487805650E-05  -1.56249514191583E-35
      5.18420487805650E-05   1.65771467864931E-15
      6.00000000000000E-01
      0.00000000000000E+00   0.00000000000000E+00   0.00000000000000E+00   0.00000000000000E+00  -5.19248247302202E-05
     -1.98830885292187E-25  -5.19248247302202E-05   6.59587586786812E-16   1.35000000000000E+00   1.35000000000000E+00
      0.00000000000000E+00   0.00000000000000E+00   0.00000000000000E+00   0.00000000000000E+00   0.00000000000000E+00
      7.57144808406957E-15   0.00000000000000E+00   0.00000000000000E+00   0.00000000000000E+00   0.00000000000000E+00
      4.48749394219305E-18   1.98830885296436E-25   4.48749414102394E-18  -9.99693241497332E-15   1.08000000000000E+00
      1.08000000000000E+00   0.00000000000000E+00   0.00000000000000E+00   5.19248247302157E-05  -4.24963979415231E-36
      5.19248247302157E-05   1.76589674411695E-15
      6.50000000000000E-01
      0.00000000000000E+00   0.00000000000000E+00   0.00000000000000E+00   0.00000000000000E+00  -5.20012292879413E-05
     -2.25225369769204E-25  -5.20012292879413E-05   6.59589303086322E-16   1.35000000000000E+00   1.35000000000000E+00
      0.00000000000000E+00   0.00000000000000E+00   0.00000000000000E+00   0.00000000000000E+00   0.00000000000000E+00
      7.50471629350903E-15   0.00000000000000E+00   0.00000000000000E+00   0.00000000000000E+00   0.00000000000000E+00
      4.52776869871520E-18   2.25225369769737E-25   4.52776892394057E-18  -1.00385026710139E-14   1.17000000000000E+00
      1.17000000000000E+00   0.00000000000000E+00   0.00000000000000E+00   5.20012292879368E-05  -5.32951047215764E-37
      5.20012292879368E-05   1.87419707441857E-15
      7.00000000000000E-01
      0.00000000000000E+00   0.00000000000000E+00   0.00000000000000E+00   0.00000000000000E+00  -5.20726935904420E-05
     -1.61158891499017E-25  -5.20726935904420E-05   6.59590908163658E-16   1.35000000000000E+00   1.35000000000000E+00
      0.00000000000000E+00   0.00000000000000E+00   0.00000000000000E+00   0.00000000000000E+00   0.00000000000000E+00
      7.44017728221271E-15   0.00000000000000E+00   0.00000000000000E+00   0.00000000000000E+00   0.00000000000000E+00
      2.55145714604908E-15   1.61158891499072E-25   2.55145714621024E-15  -1.00807608202125E-14   1.26000000000000E+00
      1.26000000000000E+00   0.00000000000000E+00   0.00000000000000E+00   5.20726935878906E-05  -5.43161341043760E-38
      5.20726935878906E-05   1.98099262983620E-15
      7.50000000000000E-01
      0.00000000000000E+00   0.00000000000000E+00   0.00000000000000E+00   0.00000000000000E+00  -5.21398466175067E-05
     -2.15686531604837E-25  -5.21398466175067E-05   6.59592416192121E-16   1.35000000000000E+00   1.35000000000000E+00
      0.00000000000000E+00   0.00000000000000E+00   0.00000000000000E+00   0.00000000000000E+00   0.00000000000000E+00
      7.37782672291090E-15   0.00000000000000E+00   0.00000000000000E+00   0.00000000000000E+00   0.00000000000000E+00
      4.16266090065211E-14   2.15686531604849E-25   4.16266090067368E-14  -1.01229415375745E-14   1.35000000000000E+00
      1.35000000000000E+00   0.00000000000000E+00   0.00000000000000E+00   5.21398465758802E-05  -1.17030981537551E-38
      5.21398465758802E-05   2.08552239847145E-15
      8.00000000000000E-01
      0.00000000000000E+00   0.00000000000000E+00   0.00000000000000E+00   0.00000000000000E+00  -5.22030268621102E-05
     -1.79290621108718E-25  -5.22030268621102E-05   6.59593834812218E-16   1.35000000000000E+00   1.35000000000000E+00
      0.00000000000000E+00   0.00000000000000E+00   0.00000000000000E+00   0.00000000000000E+00   0.00000000000000E+00
      7.31769191390516E-15   0.00000000000000E+00   0.00000000000000E+00   0.00000000000000E+00   0.00000000000000E+00
      2.03992208190125E-14   1.79290621108719E-25   2.03992208191918E-14  -1.01648674764227E-14   1.44000000000000E+00
      1.44000000000000E+00   0.00000000000000E+00   0.00000000000000E+00   5.22030268417110E-05  -7.86855593075144E-40
      5.22030268417110E-05   2.18758172770535E-15
      8.50000000000000E-01
      0.00000000000000E+00   0.00000000000000E+00   0.00000000000000E+00   0.00000000000000E+00  -5.22623613792170E-05
     -2.01424598012975E-25  -5.22623613792170E-05   6.59595166911498E-16   1.35000000000000E+00   1.35000000000000E+00
      0.00000000000000E+00   0.00000000000000E+00   0.00000000000000E+00   0.00000000000000E+00   0.00000000000000E+00
      7.25951694806107E-15   0.00000000000000E+00   0.00000000000000E+00   0.00000000000000E+00   0.00000000000000E+00
      3.35535177538265E-17   2.01424598012975E-25   3.35535179552511E-17  -1.02064947847477E-14   1.53000000000000E+00
      1.53000000000000E+00   0.00000000000000E+00   0.00000000000000E+00   5.22623613791834E-05  -1.52111936772944E-40
      5.22623613791834E-05   2.28738266977511E-15
      9.00000000000000E-01
      0.00000000000000E+00   0.00000000000000E+00   0.00000000000000E+00   0.00000000000000E+00  -5.23177478009650E-05
     -2.15011574928773E-25  -5.23177478009650E-05   6.59596410224214E-16   1.35000000000000E+00   1.35000000000000E+00
      0.00000000000000E+00   0.00000000000000E+00   0.00000000000000E+00   0.00000000000000E+00   0.00000000000000E+00
      7.20316421196309E-15   0.00000000000000E+00   0.00000000000000E+00   0.00000000000000E+00   0.00000000000000E+00
      7.81236927243751E-18   2.15011574928773E-25   7.81236948744909E-18  -1.02478101413709E-14   1.62000000000000E+00
      1.62000000000000E+00   0.00000000000000E+00   0.00000000000000E+00   5.23177478009571E-05  -4.82964316429814E-41
      5.23177478009571E-05   2.38504951918358E-15
      9.50000000000000E-01
      0.00000000000000E+00   0.00000000000000E+00   0.00000000000000E+00   0.00000000000000E+00  -5.23693004582994E-05
     -1.89373666850294E-25  -5.23693004582994E-05   6.59597567347196E-16   1.35000000000000E+00   1.35000000000000E+00
      0.00000000000000E+00   0.00000000000000E+00   0.00000000000000E+00   0.00000000000000E+00   0.00000000000000E+00
      7.14858486879459E-15   0.00000000000000E+00   0.00000000000000E+00   0.00000000000000E+00   0.00000000000000E+00
      1.55823078867267E-17   1.89373666850294E-25   1.55823080761004E-17  -1.02888055902354E-14   1.71000000000000E+00
      1.71000000000000E+00   0.00000000000000E+00   0.00000000000000E+00   5.23693004582838E-05  -3.12941528889014E-42
      5.23693004582838E-05   2.48062315409363E-15
      1.00000000000000E+00
      0.00000000000000E+00   0.00000000000000E+00   0.00000000000000E+00   0.00000000000000E+00  -5.24179130977914E-05
     -2.08788556297122E-25  -5.24179130977914E-05   6.59598658365704E-16   1.35000000000000E+00   1.35000000000000E+00
      0.00000000000000E+00   0.00000000000000E+00   0.00000000000000E+00   0.00000000000000E+00   0.00000000000000E+00
      7.09541220925182E-15   0.00000000000000E+00   0.00000000000000E+00   0.00000000000000E+00   0.00000000000000E+00
      1.01560676574678E-17   2.08788556297122E-25   1.01560678662563E-17  -1.03293955100562E-14   1.80000000000000E+00
      1.80000000000000E+00   0.00000000000000E+00   0.00000000000000E+00   5.24179130977813E-05  -1.07306241910703E-42
      5.24179130977813E-05   2.57438464243871E-15
}
