DF-ISE text

Info {
  version   = 1.0
  type      = xyplot
  datasets  = [
    "time"
    "source OuterVoltage" "source InnerVoltage" "source QuasiFermiPotential" "source DisplacementCurrent" "source eCurrent"
    "source hCurrent" "source TotalCurrent" "source Charge" "gate OuterVoltage" "gate InnerVoltage"
    "gate QuasiFermiPotential" "gate DisplacementCurrent" "gate eCurrent" "gate hCurrent" "gate TotalCurrent"
    "gate Charge" "substrate OuterVoltage" "substrate InnerVoltage" "substrate QuasiFermiPotential" "substrate DisplacementCurrent"
    "substrate eCurrent" "substrate hCurrent" "substrate TotalCurrent" "substrate Charge" "drain OuterVoltage"
    "drain InnerVoltage" "drain QuasiFermiPotential" "drain DisplacementCurrent" "drain eCurrent" "drain hCurrent"
    "drain TotalCurrent" "drain Charge" ]
  functions = [
    Time
    OuterVoltage InnerVoltage QuasiFermiPotential DisplacementCurrent eCurrent
    hCurrent TotalCurrent Charge OuterVoltage InnerVoltage
    QuasiFermiPotential DisplacementCurrent eCurrent hCurrent TotalCurrent
    Charge OuterVoltage InnerVoltage QuasiFermiPotential DisplacementCurrent
    eCurrent hCurrent TotalCurrent Charge OuterVoltage
    InnerVoltage QuasiFermiPotential DisplacementCurrent eCurrent hCurrent
    TotalCurrent Charge ]
}

Data {
      5.00000000000000E-02
      0.00000000000000E+00   0.00000000000000E+00   0.00000000000000E+00   0.00000000000000E+00  -8.00649971823591E-06
     -8.46024069569117E-26  -8.00649971823591E-06   8.29422569659377E-16   9.00000000000000E-01   9.00000000000000E-01
      0.00000000000000E+00   0.00000000000000E+00   0.00000000000000E+00   0.00000000000000E+00   0.00000000000000E+00
      2.45566326203089E-15   0.00000000000000E+00   0.00000000000000E+00   0.00000000000000E+00   0.00000000000000E+00
     -7.85623232275526E-19   9.52967834717306E-26  -7.85623136978743E-19  -4.20214492431614E-15   9.00000000000000E-02
      9.00000000000000E-02   0.00000000000000E+00   0.00000000000000E+00   8.00649971823669E-06  -1.06943765148189E-26
      8.00649971823669E-06   9.17059092625876E-16
      1.00000000000000E-01
      0.00000000000000E+00   0.00000000000000E+00   0.00000000000000E+00   0.00000000000000E+00  -1.04122799564142E-05
     -1.01473729682683E-25  -1.04122799564142E-05   8.29442293998338E-16   9.00000000000000E-01   9.00000000000000E-01
      0.00000000000000E+00   0.00000000000000E+00   0.00000000000000E+00   0.00000000000000E+00   0.00000000000000E+00
      2.28924254418549E-15   0.00000000000000E+00   0.00000000000000E+00   0.00000000000000E+00   0.00000000000000E+00
      5.03625956590492E-19   1.02084769540615E-25   5.03626058675261E-19  -4.12355470752058E-15   1.80000000000000E-01
      1.80000000000000E-01   0.00000000000000E+00   0.00000000000000E+00   1.04122799564137E-05  -6.11039857932368E-28
      1.04122799564137E-05   1.00486986933675E-15
      1.50000000000000E-01
      0.00000000000000E+00   0.00000000000000E+00   0.00000000000000E+00   0.00000000000000E+00  -1.07500891987026E-05
     -8.62088321440657E-26  -1.07500891987026E-05   8.29444896580358E-16   9.00000000000000E-01   9.00000000000000E-01
      0.00000000000000E+00   0.00000000000000E+00   0.00000000000000E+00   0.00000000000000E+00   0.00000000000000E+00
      2.17309772161437E-15   0.00000000000000E+00   0.00000000000000E+00   0.00000000000000E+00   0.00000000000000E+00
      1.24975675346157E-16   8.62443862052167E-26   1.24975675432401E-16  -4.09786026578722E-15   2.70000000000000E-01
      2.70000000000000E-01   0.00000000000000E+00   0.00000000000000E+00   1.07500891985776E-05  -3.55540611509890E-29
      1.07500891985776E-05   1.09531764759249E-15
      2.00000000000000E-01
      0.00000000000000E+00   0.00000000000000E+00   0.00000000000000E+00   0.00000000000000E+00  -1.08382455080836E-05
     -1.02416454755100E-25  -1.08382455080836E-05   8.29445567725808E-16   9.00000000000000E-01   9.00000000000000E-01
      0.00000000000000E+00   0.00000000000000E+00   0.00000000000000E+00   0.00000000000000E+00   0.00000000000000E+00
      2.07971553269658E-15   0.00000000000000E+00   0.00000000000000E+00   0.00000000000000E+00   0.00000000000000E+00
      6.04077723131167E-18   1.02406789809535E-25   6.04077733371846E-18  -4.09980628053398E-15   3.60000000000000E-01
      3.60000000000000E-01   0.00000000000000E+00   0.00000000000000E+00   1.08382455080775E-05   9.66494556488616E-30
      1.08382455080775E-05   1.19064518011158E-15
      2.50000000000000E-01
      0.00000000000000E+00   0.00000000000000E+00   0.00000000000000E+00   0.00000000000000E+00  -1.09028585967812E-05
     -8.36037844456415E-26  -1.09028585967812E-05   8.29446057528571E-16   9.00000000000000E-01   9.00000000000000E-01
      0.00000000000000E+00   0.00000000000000E+00   0.00000000000000E+00   0.00000000000000E+00   0.00000000000000E+00
      1.99928570224447E-15   0.00000000000000E+00   0.00000000000000E+00   0.00000000000000E+00   0.00000000000000E+00
     -6.42451534754567E-18   8.36010245369467E-26  -6.42451526394465E-18  -4.12111499244857E-15   4.50000000000000E-01
      4.50000000000000E-01   0.00000000000000E+00   0.00000000000000E+00   1.09028585967876E-05   2.75990869481850E-30
      1.09028585967876E-05   1.29238323267553E-15
      3.00000000000000E-01
      0.00000000000000E+00   0.00000000000000E+00   0.00000000000000E+00   0.00000000000000E+00  -1.09584498772041E-05
     -6.83581557534857E-26  -1.09584498772041E-05   8.29446477544396E-16   9.00000000000000E-01   9.00000000000000E-01
      0.00000000000000E+00   0.00000000000000E+00   0.00000000000000E+00   0.00000000000000E+00   0.00000000000000E+00
      1.92903389456827E-15   0.00000000000000E+00   0.00000000000000E+00   0.00000000000000E+00   0.00000000000000E+00
     -3.96454095772505E-17   6.83577773180608E-26  -3.96454095088927E-17  -4.15898404190973E-15   5.40000000000000E-01
      5.40000000000000E-01   0.00000000000000E+00   0.00000000000000E+00   1.09584498772437E-05   3.78435424919281E-31
      1.09584498772437E-05   1.40050366979707E-15
      3.50000000000000E-01
      0.00000000000000E+00   0.00000000000000E+00   0.00000000000000E+00   0.00000000000000E+00  -1.10085993027435E-05
     -8.89885377447893E-26  -1.10085993027435E-05   8.29446855337431E-16   9.00000000000000E-01   9.00000000000000E-01
      0.00000000000000E+00   0.00000000000000E+00   0.00000000000000E+00   0.00000000000000E+00   0.00000000000000E+00
      1.86524926234980E-15   0.00000000000000E+00   0.00000000000000E+00   0.00000000000000E+00   0.00000000000000E+00
      9.12220925850156E-18   8.89884532361681E-26   9.12220934749002E-18  -4.20633904205065E-15   6.30000000000000E-01
      6.30000000000000E-01   0.00000000000000E+00   0.00000000000000E+00   1.10085993027343E-05   8.45086211937739E-32
      1.10085993027343E-05   1.51164292436342E-15
      4.00000000000000E-01
      0.00000000000000E+00   0.00000000000000E+00   0.00000000000000E+00   0.00000000000000E+00  -1.10548948259517E-05
     -8.73905588885229E-26  -1.10548948259517E-05   8.29447203162055E-16   9.00000000000000E-01   9.00000000000000E-01
      0.00000000000000E+00   0.00000000000000E+00   0.00000000000000E+00   0.00000000000000E+00   0.00000000000000E+00
      1.80470016415066E-15   0.00000000000000E+00   0.00000000000000E+00   0.00000000000000E+00   0.00000000000000E+00
     -8.02662258729169E-19   8.73905507341657E-26  -8.02662171338619E-19  -4.25657933838357E-15   7.20000000000000E-01
      7.20000000000000E-01   0.00000000000000E+00   0.00000000000000E+00   1.10548948259525E-05   8.15435724456868E-33
      1.10548948259525E-05   1.62243197107086E-15
      4.50000000000000E-01
      0.00000000000000E+00   0.00000000000000E+00   0.00000000000000E+00   0.00000000000000E+00  -1.10984866081871E-05
     -8.86071882482678E-26  -1.10984866081871E-05   8.29447529849518E-16   9.00000000000000E-01   9.00000000000000E-01
      0.00000000000000E+00   0.00000000000000E+00   0.00000000000000E+00   0.00000000000000E+00   0.00000000000000E+00
      1.74589461000903E-15   0.00000000000000E+00   0.00000000000000E+00   0.00000000000000E+00   0.00000000000000E+00
      1.90792216444829E-15   8.86071861943139E-26   1.90792216453690E-15  -4.30695514364637E-15   8.10000000000000E-01
      8.10000000000000E-01   0.00000000000000E+00   0.00000000000000E+00   1.10984866062791E-05   2.05395399585430E-33
      1.10984866062791E-05   1.73161300378782E-15
      5.00000000000000E-01
      0.00000000000000E+00   0.00000000000000E+00   0.00000000000000E+00   0.00000000000000E+00  -1.11399393712218E-05
     -9.11157021445897E-26  -1.11399393712218E-05   8.29447839762394E-16   9.00000000000000E-01   9.00000000000000E-01
      0.00000000000000E+00   0.00000000000000E+00   0.00000000000000E+00   0.00000000000000E+00   0.00000000000000E+00
      1.68840297930383E-15   0.00000000000000E+00   0.00000000000000E+00   0.00000000000000E+00   0.00000000000000E+00
      3.59472579806613E-17   9.11157020333590E-26   3.59472580717770E-17  -4.35676131783861E-15   9.00000000000000E-01
      9.00000000000000E-01   0.00000000000000E+00   0.00000000000000E+00   1.11399393711858E-05   1.11230702959028E-34
      1.11399393711858E-05   1.83891049877240E-15
      5.50000000000000E-01
      0.00000000000000E+00   0.00000000000000E+00   0.00000000000000E+00   0.00000000000000E+00  -1.11794286602338E-05
     -1.05344971830611E-25  -1.11794286602338E-05   8.29448134317118E-16   9.00000000000000E-01   9.00000000000000E-01
      0.00000000000000E+00   0.00000000000000E+00   0.00000000000000E+00   0.00000000000000E+00   0.00000000000000E+00
      1.63219291959015E-15   0.00000000000000E+00   0.00000000000000E+00   0.00000000000000E+00   0.00000000000000E+00
      2.88564516318305E-16   1.05344971804680E-25   2.88564516423650E-16  -4.40585593121067E-15   9.90000000000000E-01
      9.90000000000000E-01   0.00000000000000E+00   0.00000000000000E+00   1.11794286599452E-05   2.59303740613345E-35
      1.11794286599452E-05   1.94421487730340E-15
      6.00000000000000E-01
      0.00000000000000E+00   0.00000000000000E+00   0.00000000000000E+00   0.00000000000000E+00  -1.12169741772678E-05
     -9.04870708017169E-26  -1.12169741772678E-05   8.29448413754987E-16   9.00000000000000E-01   9.00000000000000E-01
      0.00000000000000E+00   0.00000000000000E+00   0.00000000000000E+00   0.00000000000000E+00   0.00000000000000E+00
      1.57735707642479E-15   0.00000000000000E+00   0.00000000000000E+00   0.00000000000000E+00   0.00000000000000E+00
      1.52024766547870E-19   9.04870707941517E-26   1.52024857034941E-19  -4.45422534478477E-15   1.08000000000000E+00
      1.08000000000000E+00   0.00000000000000E+00   0.00000000000000E+00   1.12169741772676E-05   7.56532781531978E-36
      1.12169741772676E-05   2.04741985460499E-15
      6.50000000000000E-01
      0.00000000000000E+00   0.00000000000000E+00   0.00000000000000E+00   0.00000000000000E+00  -1.12527378816301E-05
     -8.17477295160122E-26  -1.12527378816301E-05   8.29448679368131E-16   9.00000000000000E-01   9.00000000000000E-01
      0.00000000000000E+00   0.00000000000000E+00   0.00000000000000E+00   0.00000000000000E+00   0.00000000000000E+00
      1.52380768645468E-15   0.00000000000000E+00   0.00000000000000E+00   0.00000000000000E+00   0.00000000000000E+00
      4.97478839209208E-18   8.17477295158931E-26   4.97478847383981E-18  -4.50189181940713E-15   1.17000000000000E+00
      1.17000000000000E+00   0.00000000000000E+00   0.00000000000000E+00   1.12527378816252E-05   1.19101118401212E-37
      1.12527378816252E-05   2.14863545358432E-15
      7.00000000000000E-01
      0.00000000000000E+00   0.00000000000000E+00   0.00000000000000E+00   0.00000000000000E+00  -1.12870771386026E-05
     -6.53191113246608E-26  -1.12870771386026E-05   8.29448933883002E-16   9.00000000000000E-01   9.00000000000000E-01
      0.00000000000000E+00   0.00000000000000E+00   0.00000000000000E+00   0.00000000000000E+00   0.00000000000000E+00
      1.47127417939917E-15   0.00000000000000E+00   0.00000000000000E+00   0.00000000000000E+00   0.00000000000000E+00
      1.07705760282472E-17   6.53191113246317E-26   1.07705760935663E-17  -4.54890754463700E-15   1.26000000000000E+00
      1.26000000000000E+00   0.00000000000000E+00   0.00000000000000E+00   1.12870771385919E-05   2.91381219186634E-38
      1.12870771385919E-05   2.24818443135483E-15
      7.50000000000000E-01
      0.00000000000000E+00   0.00000000000000E+00   0.00000000000000E+00   0.00000000000000E+00  -1.13203510078881E-05
     -9.17855224013916E-26  -1.13203510078881E-05   8.29449180014767E-16   9.00000000000000E-01   9.00000000000000E-01
      0.00000000000000E+00   0.00000000000000E+00   0.00000000000000E+00   0.00000000000000E+00   0.00000000000000E+00
      1.41957047692520E-15   0.00000000000000E+00   0.00000000000000E+00   0.00000000000000E+00   0.00000000000000E+00
      3.03355417770420E-19   9.17855224013894E-26   3.03355509555943E-19  -4.59531209250075E-15   1.35000000000000E+00
      1.35000000000000E+00   0.00000000000000E+00   0.00000000000000E+00   1.13203510078878E-05   2.24297666800066E-39
      1.13203510078878E-05   2.34629243556079E-15
      8.00000000000000E-01
      0.00000000000000E+00   0.00000000000000E+00   0.00000000000000E+00   0.00000000000000E+00  -1.13527474644336E-05
     -8.78277888311506E-26  -1.13527474644336E-05   8.29449419194057E-16   9.00000000000000E-01   9.00000000000000E-01
      0.00000000000000E+00   0.00000000000000E+00   0.00000000000000E+00   0.00000000000000E+00   0.00000000000000E+00
      1.36874047744281E-15   0.00000000000000E+00   0.00000000000000E+00   0.00000000000000E+00   0.00000000000000E+00
      7.90376534373742E-18   8.78277888311494E-26   7.90376543156521E-18  -4.64114049277176E-15   1.44000000000000E+00
      1.44000000000000E+00   0.00000000000000E+00   0.00000000000000E+00   1.13527474644257E-05   1.15243727089377E-39
      1.13527474644257E-05   2.44295059613489E-15
      8.50000000000000E-01
      0.00000000000000E+00   0.00000000000000E+00   0.00000000000000E+00   0.00000000000000E+00  -1.13843047822730E-05
     -9.82716901753974E-26  -1.13843047822730E-05   8.29449651737504E-16   9.00000000000000E-01   9.00000000000000E-01
      0.00000000000000E+00   0.00000000000000E+00   0.00000000000000E+00   0.00000000000000E+00   0.00000000000000E+00
      1.31899751569464E-15   0.00000000000000E+00   0.00000000000000E+00   0.00000000000000E+00   0.00000000000000E+00
     -8.15479806186083E-19   9.82716901753972E-26  -8.15479707914393E-19  -4.68641521960124E-15   1.53000000000000E+00
      1.53000000000000E+00   0.00000000000000E+00   0.00000000000000E+00   1.13843047822738E-05   2.87736105425425E-40
      1.13843047822738E-05   2.53796805216909E-15
      9.00000000000000E-01
      0.00000000000000E+00   0.00000000000000E+00   0.00000000000000E+00   0.00000000000000E+00  -1.14149702573604E-05
     -1.04111196846614E-25  -1.14149702573604E-05   8.29449877290295E-16   9.00000000000000E-01   9.00000000000000E-01
      0.00000000000000E+00   0.00000000000000E+00   0.00000000000000E+00   0.00000000000000E+00   0.00000000000000E+00
      1.27059724153974E-15   0.00000000000000E+00   0.00000000000000E+00   0.00000000000000E+00   0.00000000000000E+00
      2.53775890349390E-18   1.04111196846614E-25   2.53775900760509E-18  -4.73114213312797E-15   1.62000000000000E+00
      1.62000000000000E+00   0.00000000000000E+00   0.00000000000000E+00   1.14149702573578E-05  -2.64909105626772E-41
      1.14149702573578E-05   2.63109501429794E-15
      9.50000000000000E-01
      0.00000000000000E+00   0.00000000000000E+00   0.00000000000000E+00   0.00000000000000E+00  -1.14446709361505E-05
     -8.08293376907843E-26  -1.14446709361505E-05   8.29450095350544E-16   9.00000000000000E-01   9.00000000000000E-01
      0.00000000000000E+00   0.00000000000000E+00   0.00000000000000E+00   0.00000000000000E+00   0.00000000000000E+00
      1.22365160177073E-15   0.00000000000000E+00   0.00000000000000E+00   0.00000000000000E+00   0.00000000000000E+00
     -4.61862158763129E-18   8.08293376907843E-26  -4.61862150680195E-18  -4.77531508191092E-15   1.71000000000000E+00
      1.71000000000000E+00   0.00000000000000E+00   0.00000000000000E+00   1.14446709361551E-05  -8.26845528106858E-42
      1.14446709361551E-05   2.72221338478964E-15
      1.00000000000000E+00
      0.00000000000000E+00   0.00000000000000E+00   0.00000000000000E+00   0.00000000000000E+00  -1.14734341192529E-05
     -8.15901007620910E-26  -1.14734341192529E-05   8.29450306154690E-16   9.00000000000000E-01   9.00000000000000E-01
      0.00000000000000E+00   0.00000000000000E+00   0.00000000000000E+00   0.00000000000000E+00   0.00000000000000E+00
      1.17797418933989E-15   0.00000000000000E+00   0.00000000000000E+00   0.00000000000000E+00   0.00000000000000E+00
     -1.06226799538683E-18   8.15901007620910E-26  -1.06226791379673E-18  -4.81892111179226E-15   1.80000000000000E+00
      1.80000000000000E+00   0.00000000000000E+00   0.00000000000000E+00   1.14734341192539E-05   5.97041934991677E-43
      1.14734341192539E-05   2.81149661629769E-15
}
