DF-ISE text

Info {
  version   = 1.0
  type      = xyplot
  datasets  = [
    "time"
    "source OuterVoltage" "source InnerVoltage" "source QuasiFermiPotential" "source DisplacementCurrent" "source eCurrent"
    "source hCurrent" "source TotalCurrent" "source Charge" "gate OuterVoltage" "gate InnerVoltage"
    "gate QuasiFermiPotential" "gate DisplacementCurrent" "gate eCurrent" "gate hCurrent" "gate TotalCurrent"
    "gate Charge" "substrate OuterVoltage" "substrate InnerVoltage" "substrate QuasiFermiPotential" "substrate DisplacementCurrent"
    "substrate eCurrent" "substrate hCurrent" "substrate TotalCurrent" "substrate Charge" "drain OuterVoltage"
    "drain InnerVoltage" "drain QuasiFermiPotential" "drain DisplacementCurrent" "drain eCurrent" "drain hCurrent"
    "drain TotalCurrent" "drain Charge" ]
  functions = [
    Time
    OuterVoltage InnerVoltage QuasiFermiPotential DisplacementCurrent eCurrent
    hCurrent TotalCurrent Charge OuterVoltage InnerVoltage
    QuasiFermiPotential DisplacementCurrent eCurrent hCurrent TotalCurrent
    Charge OuterVoltage InnerVoltage QuasiFermiPotential DisplacementCurrent
    eCurrent hCurrent TotalCurrent Charge OuterVoltage
    InnerVoltage QuasiFermiPotential DisplacementCurrent eCurrent hCurrent
    TotalCurrent Charge ]
}

Data {
      5.00000000000000E-02
      0.00000000000000E+00   0.00000000000000E+00   0.00000000000000E+00   0.00000000000000E+00  -1.57846137527583E-09
     -8.38535063656061E-43  -1.57846137527583E-09   2.17025695525123E-15   0.00000000000000E+00   0.00000000000000E+00
      0.00000000000000E+00   0.00000000000000E+00   0.00000000000000E+00   0.00000000000000E+00   0.00000000000000E+00
     -6.67584319525325E-16  -1.80000000000000E+00  -1.80000000000000E+00   0.00000000000000E+00   0.00000000000000E+00
     -4.66231631584889E-19   8.32824362406787E-43  -4.66231631584889E-19  -3.77982588778696E-15   9.00000000000000E-02
      9.00000000000000E-02   0.00000000000000E+00   0.00000000000000E+00   1.57846137574206E-09   5.71070124927445E-45
      1.57846137574206E-09   2.27715325206105E-15
      1.00000000000000E-01
      0.00000000000000E+00   0.00000000000000E+00   0.00000000000000E+00   0.00000000000000E+00  -3.57178206059142E-09
     -2.02868166937271E-42  -3.57178206059142E-09   2.16505724143918E-15   0.00000000000000E+00   0.00000000000000E+00
      0.00000000000000E+00   0.00000000000000E+00   0.00000000000000E+00   0.00000000000000E+00   0.00000000000000E+00
     -7.22503969292144E-16  -1.80000000000000E+00  -1.80000000000000E+00   0.00000000000000E+00   0.00000000000000E+00
     -4.59915152169863E-19   2.01433802622607E-42  -4.59915152169863E-19  -3.81929243041668E-15   1.80000000000000E-01
      1.80000000000000E-01   0.00000000000000E+00   0.00000000000000E+00   3.57178206105133E-09   1.43436431466488E-44
      3.57178206105133E-09   2.37673915826964E-15
      1.50000000000000E-01
      0.00000000000000E+00   0.00000000000000E+00   0.00000000000000E+00   0.00000000000000E+00  -7.67938209515435E-09
     -1.74720546913832E-42  -7.67938209515435E-09   2.15992448823634E-15   0.00000000000000E+00   0.00000000000000E+00
      0.00000000000000E+00   0.00000000000000E+00   0.00000000000000E+00   0.00000000000000E+00   0.00000000000000E+00
     -7.75794812329367E-16  -1.80000000000000E+00  -1.80000000000000E+00   0.00000000000000E+00   0.00000000000000E+00
     -4.68926048985630E-19   1.74698450088959E-42  -4.68926048985630E-19  -3.85822485727109E-15   2.70000000000000E-01
      2.70000000000000E-01   0.00000000000000E+00   0.00000000000000E+00   7.67938209562328E-09   2.20968248736236E-46
      7.67938209562328E-09   2.47409518136411E-15
      2.00000000000000E-01
      0.00000000000000E+00   0.00000000000000E+00   0.00000000000000E+00   0.00000000000000E+00  -1.58045621902567E-08
     -1.39636190490606E-42  -1.58045621902567E-08   2.15487624406263E-15   0.00000000000000E+00   0.00000000000000E+00
      0.00000000000000E+00   0.00000000000000E+00   0.00000000000000E+00   0.00000000000000E+00   0.00000000000000E+00
     -8.27450358621002E-16  -1.80000000000000E+00  -1.80000000000000E+00   0.00000000000000E+00   0.00000000000000E+00
     -4.66343505669290E-19   1.39697681239398E-42  -4.66343505669290E-19  -3.89658908439832E-15   3.60000000000000E-01
      3.60000000000000E-01   0.00000000000000E+00   0.00000000000000E+00   1.58045621907231E-08  -6.14907487918571E-46
      1.58045621907231E-08   2.56916319895669E-15
      2.50000000000000E-01
      0.00000000000000E+00   0.00000000000000E+00   0.00000000000000E+00   0.00000000000000E+00  -3.10031255667927E-08
     -1.95761440639545E-42  -3.10031255667927E-08   2.14992167012151E-15   0.00000000000000E+00   0.00000000000000E+00
      0.00000000000000E+00   0.00000000000000E+00   0.00000000000000E+00   0.00000000000000E+00   0.00000000000000E+00
     -8.77726213149638E-16  -1.80000000000000E+00  -1.80000000000000E+00   0.00000000000000E+00   0.00000000000000E+00
     -4.66270575945662E-19   1.95756234874374E-42  -4.66270575945662E-19  -3.93434957374805E-15   4.50000000000000E-01
      4.50000000000000E-01   0.00000000000000E+00   0.00000000000000E+00   3.10031255672590E-08   5.20576517084944E-47
      3.10031255672590E-08   2.66215411677617E-15
      3.00000000000000E-01
      0.00000000000000E+00   0.00000000000000E+00   0.00000000000000E+00   0.00000000000000E+00  -5.82374520555173E-08
     -1.82100730108846E-42  -5.82374520555173E-08   2.14505387759798E-15   0.00000000000000E+00   0.00000000000000E+00
      0.00000000000000E+00   0.00000000000000E+00   0.00000000000000E+00   0.00000000000000E+00   0.00000000000000E+00
     -9.26966846536343E-16  -1.80000000000000E+00  -1.80000000000000E+00   0.00000000000000E+00   0.00000000000000E+00
     -3.99982743347903E-19   1.82101021450148E-42  -3.99982743347903E-19  -3.97147584210912E-15   5.40000000000000E-01
      5.40000000000000E-01   0.00000000000000E+00   0.00000000000000E+00   5.82374520559173E-08  -2.91341302097098E-48
      5.82374520559173E-08   2.75338881104748E-15
      3.50000000000000E-01
      0.00000000000000E+00   0.00000000000000E+00   0.00000000000000E+00   0.00000000000000E+00  -1.05408701030929E-07
     -2.45661872208504E-42  -1.05408701030929E-07   2.14025119088309E-15   0.00000000000000E+00   0.00000000000000E+00
      0.00000000000000E+00   0.00000000000000E+00   0.00000000000000E+00   0.00000000000000E+00   0.00000000000000E+00
     -9.75368715392632E-16  -1.80000000000000E+00  -1.80000000000000E+00   0.00000000000000E+00   0.00000000000000E+00
     -4.73784325475922E-19   2.45661622804841E-42  -4.73784325475922E-19  -4.00794632455721E-15   6.30000000000000E-01
      6.30000000000000E-01   0.00000000000000E+00   0.00000000000000E+00   1.05408701031403E-07   2.49403662155999E-48
      1.05408701031403E-07   2.84306384906675E-15
      4.00000000000000E-01
      0.00000000000000E+00   0.00000000000000E+00   0.00000000000000E+00   0.00000000000000E+00  -1.85020568887302E-07
     -1.93021453809371E-42  -1.85020568887302E-07   2.13547917186907E-15   0.00000000000000E+00   0.00000000000000E+00
      0.00000000000000E+00   0.00000000000000E+00   0.00000000000000E+00   0.00000000000000E+00   0.00000000000000E+00
     -1.02300123363100E-15  -1.80000000000000E+00  -1.80000000000000E+00   0.00000000000000E+00   0.00000000000000E+00
     -4.73511804814377E-19   1.93021433925043E-42  -4.73511804814377E-19  -4.04373813732220E-15   7.20000000000000E-01
      7.20000000000000E-01   0.00000000000000E+00   0.00000000000000E+00   1.85020568887775E-07   1.98843280229920E-49
      1.85020568887775E-07   2.93126019908413E-15
      4.50000000000000E-01
      0.00000000000000E+00   0.00000000000000E+00   0.00000000000000E+00   0.00000000000000E+00  -3.16204834650385E-07
     -7.85131104754895E-43  -3.16204834650385E-07   2.13071053376367E-15   0.00000000000000E+00   0.00000000000000E+00
      0.00000000000000E+00   0.00000000000000E+00   0.00000000000000E+00   0.00000000000000E+00   0.00000000000000E+00
     -1.06982874093812E-15  -1.80000000000000E+00  -1.80000000000000E+00   0.00000000000000E+00   0.00000000000000E+00
     -4.75492561744404E-19   7.85131042871376E-43  -4.75492561744404E-19  -4.07880051378157E-15   8.10000000000000E-01
      8.10000000000000E-01   0.00000000000000E+00   0.00000000000000E+00   3.16204834650861E-07   6.18835198437297E-50
      3.16204834650861E-07   3.01791872095603E-15
      5.00000000000000E-01
      0.00000000000000E+00   0.00000000000000E+00   0.00000000000000E+00   0.00000000000000E+00  -5.26476365678791E-07
     -1.79201070958620E-42  -5.26476365678791E-07   2.12593708136316E-15   0.00000000000000E+00   0.00000000000000E+00
      0.00000000000000E+00   0.00000000000000E+00   0.00000000000000E+00   0.00000000000000E+00   0.00000000000000E+00
     -1.11570973040088E-15  -1.80000000000000E+00  -1.80000000000000E+00   0.00000000000000E+00   0.00000000000000E+00
     -1.02197449525663E-20   1.79201070136240E-42  -1.02197449525663E-20  -4.11306237104876E-15   9.00000000000000E-01
      9.00000000000000E-01   0.00000000000000E+00   0.00000000000000E+00   5.26476365678802E-07   8.22379916700668E-51
      5.26476365678802E-07   3.10283502008648E-15
      5.50000000000000E-01
      0.00000000000000E+00   0.00000000000000E+00   0.00000000000000E+00   0.00000000000000E+00  -8.51979738670306E-07
     -2.80264345601961E-42  -8.51979738670306E-07   2.12116719963721E-15   0.00000000000000E+00   0.00000000000000E+00
      0.00000000000000E+00   0.00000000000000E+00   0.00000000000000E+00   0.00000000000000E+00   0.00000000000000E+00
     -1.16043383518291E-15  -1.80000000000000E+00  -1.80000000000000E+00   0.00000000000000E+00   0.00000000000000E+00
     -4.73776586927045E-19   2.80264345586763E-42  -4.73776586927045E-19  -4.14652187794094E-15   9.90000000000000E-01
      9.90000000000000E-01   0.00000000000000E+00   0.00000000000000E+00   8.51979738670780E-07   1.51978680165483E-52
      8.51979738670780E-07   3.18578851348664E-15
      6.00000000000000E-01
      0.00000000000000E+00   0.00000000000000E+00   0.00000000000000E+00   0.00000000000000E+00  -1.33551547946322E-06
     -2.25488181652636E-42  -1.33551547946322E-06   2.11642080224918E-15   0.00000000000000E+00   0.00000000000000E+00
      0.00000000000000E+00   0.00000000000000E+00   0.00000000000000E+00   0.00000000000000E+00   0.00000000000000E+00
     -1.20380577103845E-15  -1.80000000000000E+00  -1.80000000000000E+00   0.00000000000000E+00   0.00000000000000E+00
      6.65706452372658E-19   2.25488181635968E-42   6.65706452372658E-19  -4.17929938503954E-15   1.08000000000000E+00
      1.08000000000000E+00   0.00000000000000E+00   0.00000000000000E+00   1.33551547946255E-06   1.66674508281032E-52
      1.33551547946255E-06   3.26668435382881E-15
      6.50000000000000E-01
      0.00000000000000E+00   0.00000000000000E+00   0.00000000000000E+00   0.00000000000000E+00  -2.02300897650135E-06
     -1.13097152093499E-42  -2.02300897650135E-06   2.11171903497776E-15   0.00000000000000E+00   0.00000000000000E+00
      0.00000000000000E+00   0.00000000000000E+00   0.00000000000000E+00   0.00000000000000E+00   0.00000000000000E+00
     -1.24579461734271E-15  -1.80000000000000E+00  -1.80000000000000E+00   0.00000000000000E+00   0.00000000000000E+00
     -4.19044813065684E-19   1.13097152092589E-42  -4.19044813065684E-19  -4.21152416532321E-15   1.17000000000000E+00
      1.17000000000000E+00   0.00000000000000E+00   0.00000000000000E+00   2.02300897650176E-06   9.09994312346202E-54
      2.02300897650176E-06   3.34559974768815E-15
      7.00000000000000E-01
      0.00000000000000E+00   0.00000000000000E+00   0.00000000000000E+00   0.00000000000000E+00  -2.96269545312975E-06
     -1.66839424587957E-42  -2.96269545312975E-06   2.10707002410304E-15   0.00000000000000E+00   0.00000000000000E+00
      0.00000000000000E+00   0.00000000000000E+00   0.00000000000000E+00   0.00000000000000E+00   0.00000000000000E+00
     -1.28669726550720E-15  -1.80000000000000E+00  -1.80000000000000E+00   0.00000000000000E+00   0.00000000000000E+00
      1.25250615399220E-19   1.66839424587828E-42   1.25250615399220E-19  -4.24326672351990E-15   1.26000000000000E+00
      1.26000000000000E+00   0.00000000000000E+00   0.00000000000000E+00   2.96269545312962E-06   1.28460848535700E-54
      2.96269545312962E-06   3.42289396492405E-15
      7.50000000000000E-01
      0.00000000000000E+00   0.00000000000000E+00   0.00000000000000E+00   0.00000000000000E+00  -4.20267546374240E-06
     -1.69365956304012E-42  -4.20267546374240E-06   2.10247492321107E-15   0.00000000000000E+00   0.00000000000000E+00
      0.00000000000000E+00   0.00000000000000E+00   0.00000000000000E+00   0.00000000000000E+00   0.00000000000000E+00
     -1.32693061298675E-15  -1.80000000000000E+00  -1.80000000000000E+00   0.00000000000000E+00   0.00000000000000E+00
     -4.78143165974436E-19   1.69365956303971E-42  -4.78143165974436E-19  -4.27458598344997E-15   1.35000000000000E+00
      1.35000000000000E+00   0.00000000000000E+00   0.00000000000000E+00   4.20267546374288E-06   4.10242349828486E-55
      4.20267546374288E-06   3.49904167322566E-15
      8.00000000000000E-01
      0.00000000000000E+00   0.00000000000000E+00   0.00000000000000E+00   0.00000000000000E+00  -5.78236022444134E-06
     -2.87987176702156E-42  -5.78236022444134E-06   2.09794081058351E-15   0.00000000000000E+00   0.00000000000000E+00
      0.00000000000000E+00   0.00000000000000E+00   0.00000000000000E+00   0.00000000000000E+00   0.00000000000000E+00
     -1.36674408610548E-15  -1.80000000000000E+00  -1.80000000000000E+00   0.00000000000000E+00   0.00000000000000E+00
     -4.59505279880216E-19   2.87987176702149E-42  -4.59505279880216E-19  -4.30555306788456E-15   1.44000000000000E+00
      1.44000000000000E+00   0.00000000000000E+00   0.00000000000000E+00   5.78236022444180E-06   7.16688647003436E-56
      5.78236022444180E-06   3.57435634340654E-15
      8.50000000000000E-01
      0.00000000000000E+00   0.00000000000000E+00   0.00000000000000E+00   0.00000000000000E+00  -7.72594446528276E-06
     -2.76701527869086E-42  -7.72594446528276E-06   2.09347926201970E-15   0.00000000000000E+00   0.00000000000000E+00
      0.00000000000000E+00   0.00000000000000E+00   0.00000000000000E+00   0.00000000000000E+00   0.00000000000000E+00
     -1.40624466966445E-15  -1.80000000000000E+00  -1.80000000000000E+00   0.00000000000000E+00   0.00000000000000E+00
     -4.75195968324498E-19   2.76701527869086E-42  -4.75195968324498E-19  -4.33622499862515E-15   1.53000000000000E+00
      1.53000000000000E+00   0.00000000000000E+00   0.00000000000000E+00   7.72594446528323E-06   1.90756087326083E-58
      7.72594446528323E-06   3.64899040626990E-15
      9.00000000000000E-01
      0.00000000000000E+00   0.00000000000000E+00   0.00000000000000E+00   0.00000000000000E+00  -1.00399181279207E-05
     -1.25038692615176E-42  -1.00399181279207E-05   2.08910240770080E-15   0.00000000000000E+00   0.00000000000000E+00
      0.00000000000000E+00   0.00000000000000E+00   0.00000000000000E+00   0.00000000000000E+00   0.00000000000000E+00
     -1.44547018332237E-15  -1.80000000000000E+00  -1.80000000000000E+00   0.00000000000000E+00   0.00000000000000E+00
     -4.40533114927138E-19   1.25038692615175E-42  -4.40533114927138E-19  -4.36663236837570E-15   1.62000000000000E+00
      1.62000000000000E+00   0.00000000000000E+00   0.00000000000000E+00   1.00399181279211E-05   9.21800233473730E-58
      1.00399181279211E-05   3.72300014399726E-15
      9.50000000000000E-01
      0.00000000000000E+00   0.00000000000000E+00   0.00000000000000E+00   0.00000000000000E+00  -1.27137945975027E-05
     -1.68279932196996E-42  -1.27137945975027E-05   2.08482073240854E-15   0.00000000000000E+00   0.00000000000000E+00
      0.00000000000000E+00   0.00000000000000E+00   0.00000000000000E+00   0.00000000000000E+00   0.00000000000000E+00
     -1.48441960063427E-15  -1.80000000000000E+00  -1.80000000000000E+00   0.00000000000000E+00   0.00000000000000E+00
     -5.97494986739858E-19   1.68279932196996E-42  -5.97494986739858E-19  -4.39679798991244E-15   1.71000000000000E+00
      1.71000000000000E+00   0.00000000000000E+00   0.00000000000000E+00   1.27137945975033E-05   2.53928793185824E-60
      1.27137945975033E-05   3.79639685813817E-15
      1.00000000000000E+00
      0.00000000000000E+00   0.00000000000000E+00   0.00000000000000E+00   0.00000000000000E+00  -1.57210113960922E-05
     -1.89701201524343E-42  -1.57210113960922E-05   2.08064420220167E-15   0.00000000000000E+00   0.00000000000000E+00
      0.00000000000000E+00   0.00000000000000E+00   0.00000000000000E+00   0.00000000000000E+00   0.00000000000000E+00
     -1.52305947995296E-15  -1.80000000000000E+00  -1.80000000000000E+00   0.00000000000000E+00   0.00000000000000E+00
     -4.11267994955529E-19   1.89701201524343E-42  -4.11267994955529E-19  -4.42675269263849E-15   1.80000000000000E+00
      1.80000000000000E+00   0.00000000000000E+00   0.00000000000000E+00   1.57210113960926E-05  -8.95712854932330E-60
      1.57210113960926E-05   3.86916797038977E-15
}
