DF-ISE text

Info {
  version   = 1.0
  type      = xyplot
  datasets  = [
    "time"
    "source OuterVoltage" "source InnerVoltage" "source QuasiFermiPotential" "source DisplacementCurrent" "source eCurrent"
    "source hCurrent" "source TotalCurrent" "source Charge" "gate OuterVoltage" "gate InnerVoltage"
    "gate QuasiFermiPotential" "gate DisplacementCurrent" "gate eCurrent" "gate hCurrent" "gate TotalCurrent"
    "gate Charge" "substrate OuterVoltage" "substrate InnerVoltage" "substrate QuasiFermiPotential" "substrate DisplacementCurrent"
    "substrate eCurrent" "substrate hCurrent" "substrate TotalCurrent" "substrate Charge" "drain OuterVoltage"
    "drain InnerVoltage" "drain QuasiFermiPotential" "drain DisplacementCurrent" "drain eCurrent" "drain hCurrent"
    "drain TotalCurrent" "drain Charge" ]
  functions = [
    Time
    OuterVoltage InnerVoltage QuasiFermiPotential DisplacementCurrent eCurrent
    hCurrent TotalCurrent Charge OuterVoltage InnerVoltage
    QuasiFermiPotential DisplacementCurrent eCurrent hCurrent TotalCurrent
    Charge OuterVoltage InnerVoltage QuasiFermiPotential DisplacementCurrent
    eCurrent hCurrent TotalCurrent Charge OuterVoltage
    InnerVoltage QuasiFermiPotential DisplacementCurrent eCurrent hCurrent
    TotalCurrent Charge ]
}

Data {
      5.00000000000000E-02
      0.00000000000000E+00   0.00000000000000E+00   0.00000000000000E+00   0.00000000000000E+00  -4.67044529000006E-05
      1.60662167800658E-42  -4.67044529000006E-05   1.67081315913980E-15   1.80000000000000E+00   1.80000000000000E+00
      0.00000000000000E+00   0.00000000000000E+00   0.00000000000000E+00   0.00000000000000E+00   0.00000000000000E+00
      7.87479097700675E-15  -1.80000000000000E+00  -1.80000000000000E+00   0.00000000000000E+00   0.00000000000000E+00
     -1.66874460121470E-17  -1.82508004370340E-42  -1.66874460121470E-17  -1.12761131584123E-14   9.00000000000000E-02
      9.00000000000000E-02   0.00000000000000E+00   0.00000000000000E+00   4.67044529000172E-05   2.18458365696813E-43
      4.67044529000172E-05   1.73050902226576E-15
      1.00000000000000E-01
      0.00000000000000E+00   0.00000000000000E+00   0.00000000000000E+00   0.00000000000000E+00  -8.54358791214368E-05
      2.58491564575633E-42  -8.54358791214368E-05   1.67094362122307E-15   1.80000000000000E+00   1.80000000000000E+00
      0.00000000000000E+00   0.00000000000000E+00   0.00000000000000E+00   0.00000000000000E+00   0.00000000000000E+00
      7.60763544558308E-15  -1.80000000000000E+00  -1.80000000000000E+00   0.00000000000000E+00   0.00000000000000E+00
     -2.35408330756339E-17  -2.60898968137987E-42  -2.35408330756339E-17  -1.10686608791665E-14   1.80000000000000E-01
      1.80000000000000E-01   0.00000000000000E+00   0.00000000000000E+00   8.54358791214604E-05   2.40740356235440E-44
      8.54358791214604E-05   1.79008181236032E-15
      1.50000000000000E-01
      0.00000000000000E+00   0.00000000000000E+00   0.00000000000000E+00   0.00000000000000E+00  -1.16735213356355E-04
      2.45699403609189E-42  -1.16735213356355E-04   1.67101167700324E-15   1.80000000000000E+00   1.80000000000000E+00
      0.00000000000000E+00   0.00000000000000E+00   0.00000000000000E+00   0.00000000000000E+00   0.00000000000000E+00
      7.35038584269190E-15  -1.80000000000000E+00  -1.80000000000000E+00   0.00000000000000E+00   0.00000000000000E+00
      5.03710026340258E-18  -2.46553082584322E-42   5.03710026340258E-18  -1.08707652449760E-14   2.70000000000000E-01
      2.70000000000000E-01   0.00000000000000E+00   0.00000000000000E+00   1.16735213356350E-04   8.53678975132863E-45
      1.16735213356350E-04   1.84936772528086E-15
      2.00000000000000E-01
      0.00000000000000E+00   0.00000000000000E+00   0.00000000000000E+00   0.00000000000000E+00  -1.41296432475558E-04
      2.08070096326318E-42  -1.41296432475558E-04   1.67103748631421E-15   1.80000000000000E+00   1.80000000000000E+00
      0.00000000000000E+00   0.00000000000000E+00   0.00000000000000E+00   0.00000000000000E+00   0.00000000000000E+00
      7.10577023474097E-15  -1.80000000000000E+00  -1.80000000000000E+00   0.00000000000000E+00   0.00000000000000E+00
     -1.67079165954689E-19  -2.08176352749970E-42  -1.67079165954689E-19  -1.06851223010318E-14   3.60000000000000E-01
      3.60000000000000E-01   0.00000000000000E+00   0.00000000000000E+00   1.41296432475558E-04   1.06256423651052E-45
      1.41296432475558E-04   1.90831457997657E-15
      2.50000000000000E-01
      0.00000000000000E+00   0.00000000000000E+00   0.00000000000000E+00   0.00000000000000E+00  -1.59854726718683E-04
      1.86745532356216E-42  -1.59854726718683E-04   1.67103844266900E-15   1.80000000000000E+00   1.80000000000000E+00
      0.00000000000000E+00   0.00000000000000E+00   0.00000000000000E+00   0.00000000000000E+00   0.00000000000000E+00
      6.87697085997452E-15  -1.80000000000000E+00  -1.80000000000000E+00   0.00000000000000E+00   0.00000000000000E+00
      3.08210099976181E-17  -1.86753618689244E-42   3.08210099976181E-17  -1.05148975628034E-14   4.50000000000000E-01
      4.50000000000000E-01   0.00000000000000E+00   0.00000000000000E+00   1.59854726718652E-04   8.08633302853469E-47
      1.59854726718652E-04   1.96688826015988E-15
      3.00000000000000E-01
      0.00000000000000E+00   0.00000000000000E+00   0.00000000000000E+00   0.00000000000000E+00  -1.73175949364681E-04
      2.34328120773790E-42  -1.73175949364681E-04   1.67102800755821E-15   1.80000000000000E+00   1.80000000000000E+00
      0.00000000000000E+00   0.00000000000000E+00   0.00000000000000E+00   0.00000000000000E+00   0.00000000000000E+00
      6.66742698334301E-15  -1.80000000000000E+00  -1.80000000000000E+00   0.00000000000000E+00   0.00000000000000E+00
     -5.33034237465897E-18  -2.34329630802142E-42  -5.33034237465897E-18  -1.03636116225793E-14   5.40000000000000E-01
      5.40000000000000E-01   0.00000000000000E+00   0.00000000000000E+00   1.73175949364686E-04   1.51002835128344E-47
      1.73175949364686E-04   2.02515663167809E-15
      3.50000000000000E-01
      0.00000000000000E+00   0.00000000000000E+00   0.00000000000000E+00   0.00000000000000E+00  -1.82085190937510E-04
      1.83640553843936E-42  -1.82085190937510E-04   1.67101524164572E-15   1.80000000000000E+00   1.80000000000000E+00
      0.00000000000000E+00   0.00000000000000E+00   0.00000000000000E+00   0.00000000000000E+00   0.00000000000000E+00
      6.48043334389107E-15  -1.80000000000000E+00  -1.80000000000000E+00   0.00000000000000E+00   0.00000000000000E+00
     -1.10652637716906E-16  -1.83640688118592E-42  -1.10652637716906E-16  -1.02348128521865E-14   6.30000000000000E-01
      6.30000000000000E-01   0.00000000000000E+00   0.00000000000000E+00   1.82085190937621E-04   1.34274656662179E-48
      1.82085190937621E-04   2.08336426664971E-15
      4.00000000000000E-01
      0.00000000000000E+00   0.00000000000000E+00   0.00000000000000E+00   0.00000000000000E+00  -1.87475689876715E-04
      2.96473730904012E-42  -1.87475689876715E-04   1.67100498836632E-15   1.80000000000000E+00   1.80000000000000E+00
      0.00000000000000E+00   0.00000000000000E+00   0.00000000000000E+00   0.00000000000000E+00   0.00000000000000E+00
      6.31865743793393E-15  -1.80000000000000E+00  -1.80000000000000E+00   0.00000000000000E+00   0.00000000000000E+00
     -1.23905695289308E-17  -2.96473772537553E-42  -1.23905695289308E-17  -1.01316236981343E-14   7.20000000000000E-01
      7.20000000000000E-01   0.00000000000000E+00   0.00000000000000E+00   1.87475689876727E-04   4.16335417921809E-49
      1.87475689876727E-04   2.14196127183402E-15
      4.50000000000000E-01
      0.00000000000000E+00   0.00000000000000E+00   0.00000000000000E+00   0.00000000000000E+00  -1.90401740426258E-04
      2.80381399215009E-42  -1.90401740426258E-04   1.67099846435285E-15   1.80000000000000E+00   1.80000000000000E+00
      0.00000000000000E+00   0.00000000000000E+00   0.00000000000000E+00   0.00000000000000E+00   0.00000000000000E+00
      6.18151603393418E-15  -1.80000000000000E+00  -1.80000000000000E+00   0.00000000000000E+00   0.00000000000000E+00
      8.22169184817420E-15  -2.80381406958055E-42   8.22169184817420E-15  -1.00540206781337E-14   8.10000000000000E-01
      8.10000000000000E-01   0.00000000000000E+00   0.00000000000000E+00   1.90401740418036E-04   7.74304628924674E-50
      1.90401740418036E-04   2.20150617984672E-15
      5.00000000000000E-01
      0.00000000000000E+00   0.00000000000000E+00   0.00000000000000E+00   0.00000000000000E+00  -1.92123648137894E-04
      2.55710958884422E-42  -1.92123648137894E-04   1.67099422018979E-15   1.80000000000000E+00   1.80000000000000E+00
      0.00000000000000E+00   0.00000000000000E+00   0.00000000000000E+00   0.00000000000000E+00   0.00000000000000E+00
      6.06127238922245E-15  -1.80000000000000E+00  -1.80000000000000E+00   0.00000000000000E+00   0.00000000000000E+00
     -2.02437034421939E-14  -2.55710959742279E-42  -2.02437034421939E-14  -9.99461749476845E-15   9.00000000000000E-01
      9.00000000000000E-01   0.00000000000000E+00   0.00000000000000E+00   1.92123648158138E-04   8.57856760359481E-51
      1.92123648158138E-04   2.26235088535622E-15
      5.50000000000000E-01
      0.00000000000000E+00   0.00000000000000E+00   0.00000000000000E+00   0.00000000000000E+00  -1.93359202497515E-04
      2.24665534645455E-42  -1.93359202497515E-04   1.67099096831333E-15   1.80000000000000E+00   1.80000000000000E+00
      0.00000000000000E+00   0.00000000000000E+00   0.00000000000000E+00   0.00000000000000E+00   0.00000000000000E+00
      5.95199939797589E-15  -1.80000000000000E+00  -1.80000000000000E+00   0.00000000000000E+00   0.00000000000000E+00
     -2.67356949186422E-17  -2.24665534745749E-42  -2.67356949186422E-17  -9.94783302052030E-15   9.90000000000000E-01
      9.90000000000000E-01   0.00000000000000E+00   0.00000000000000E+00   1.93359202497542E-04   1.00294082955276E-51
      1.93359202497542E-04   2.32484265423110E-15
      6.00000000000000E-01
      0.00000000000000E+00   0.00000000000000E+00   0.00000000000000E+00   0.00000000000000E+00  -1.94332083855287E-04
      1.89330403736192E-42  -1.94332083855287E-04   1.67098827874978E-15   1.80000000000000E+00   1.80000000000000E+00
      0.00000000000000E+00   0.00000000000000E+00   0.00000000000000E+00   0.00000000000000E+00   0.00000000000000E+00
      5.85182338974752E-15  -1.80000000000000E+00  -1.80000000000000E+00   0.00000000000000E+00   0.00000000000000E+00
     -1.05697343385277E-17  -1.89330403751029E-42  -1.05697343385277E-17  -9.91216416302485E-15   1.08000000000000E+00
      1.08000000000000E+00   0.00000000000000E+00   0.00000000000000E+00   1.94332083855298E-04   1.48369286365937E-52
      1.94332083855298E-04   2.38935249452755E-15
      6.50000000000000E-01
      0.00000000000000E+00   0.00000000000000E+00   0.00000000000000E+00   0.00000000000000E+00  -1.95151641270671E-04
      2.79530539659834E-42  -1.95151641270671E-04   1.67098592422485E-15   1.80000000000000E+00   1.80000000000000E+00
      0.00000000000000E+00   0.00000000000000E+00   0.00000000000000E+00   0.00000000000000E+00   0.00000000000000E+00
      5.75938270747289E-15  -1.80000000000000E+00  -1.80000000000000E+00   0.00000000000000E+00   0.00000000000000E+00
      2.87810625157874E-18  -2.79530539661179E-42   2.87810625157874E-18  -9.88652334657897E-15   1.17000000000000E+00
      1.17000000000000E+00   0.00000000000000E+00   0.00000000000000E+00   1.95151641270668E-04   1.34489191022945E-53
      1.95151641270668E-04   2.45615471488125E-15
      7.00000000000000E-01
      0.00000000000000E+00   0.00000000000000E+00   0.00000000000000E+00   0.00000000000000E+00  -1.95874946857254E-04
      3.03943675183923E-42  -1.95874946857254E-04   1.67098378037411E-15   1.80000000000000E+00   1.80000000000000E+00
      0.00000000000000E+00   0.00000000000000E+00   0.00000000000000E+00   0.00000000000000E+00   0.00000000000000E+00
      5.67400703726781E-15  -1.80000000000000E+00  -1.80000000000000E+00   0.00000000000000E+00   0.00000000000000E+00
      1.00615080653961E-17  -3.03943675184141E-42   1.00615080653961E-17  -9.87090852515871E-15   1.26000000000000E+00
      1.26000000000000E+00   0.00000000000000E+00   0.00000000000000E+00   1.95874946857243E-04   2.17964815434087E-54
      1.95874946857243E-04   2.52591770751679E-15
      7.50000000000000E-01
      0.00000000000000E+00   0.00000000000000E+00   0.00000000000000E+00   0.00000000000000E+00  -1.96533458070348E-04
      2.80951768453424E-42  -1.96533458070348E-04   1.67098177612096E-15   1.80000000000000E+00   1.80000000000000E+00
      0.00000000000000E+00   0.00000000000000E+00   0.00000000000000E+00   0.00000000000000E+00   0.00000000000000E+00
      5.59575396772028E-15  -1.80000000000000E+00  -1.80000000000000E+00   0.00000000000000E+00   0.00000000000000E+00
      4.32371287140420E-13  -2.80951768453462E-42   4.32371287140420E-13  -9.86694532284855E-15   1.35000000000000E+00
      1.35000000000000E+00   0.00000000000000E+00   0.00000000000000E+00   1.96533457637977E-04   3.82710054755228E-55
      1.96533457637977E-04   2.60020957900731E-15
      8.00000000000000E-01
      0.00000000000000E+00   0.00000000000000E+00   0.00000000000000E+00   0.00000000000000E+00  -1.97145452548255E-04
      1.35729449517755E-42  -1.97145452548255E-04   1.67097986937740E-15   1.80000000000000E+00   1.80000000000000E+00
      0.00000000000000E+00   0.00000000000000E+00   0.00000000000000E+00   0.00000000000000E+00   0.00000000000000E+00
      5.52476325904352E-15  -1.80000000000000E+00  -1.80000000000000E+00   0.00000000000000E+00   0.00000000000000E+00
     -1.64991831530004E-17  -1.35729449517760E-42  -1.64991831530004E-17  -9.87611923140246E-15   1.44000000000000E+00
      1.44000000000000E+00   0.00000000000000E+00   0.00000000000000E+00   1.97145452548272E-04   5.15863154656269E-56
      1.97145452548272E-04   2.68037610298154E-15
      8.50000000000000E-01
      0.00000000000000E+00   0.00000000000000E+00   0.00000000000000E+00   0.00000000000000E+00  -1.97720124342238E-04
      2.81201552560915E-42  -1.97720124342238E-04   1.67097804028626E-15   1.80000000000000E+00   1.80000000000000E+00
      0.00000000000000E+00   0.00000000000000E+00   0.00000000000000E+00   0.00000000000000E+00   0.00000000000000E+00
      5.45961609494780E-15  -1.80000000000000E+00  -1.80000000000000E+00   0.00000000000000E+00   0.00000000000000E+00
      5.82021226789683E-13  -2.81201552560915E-42   5.82021226789683E-13  -9.89568104901714E-15   1.53000000000000E+00
      1.53000000000000E+00   0.00000000000000E+00   0.00000000000000E+00   1.97720123760216E-04   4.23249622304101E-57
      1.97720123760216E-04   2.76508691378309E-15
      9.00000000000000E-01
      0.00000000000000E+00   0.00000000000000E+00   0.00000000000000E+00   0.00000000000000E+00  -1.98260519658314E-04
      1.36548886604744E-42  -1.98260519658314E-04   1.67097628493382E-15   1.80000000000000E+00   1.80000000000000E+00
      0.00000000000000E+00   0.00000000000000E+00   0.00000000000000E+00   0.00000000000000E+00   0.00000000000000E+00
      5.39795967124330E-15  -1.80000000000000E+00  -1.80000000000000E+00   0.00000000000000E+00   0.00000000000000E+00
      3.28910326638120E-15  -1.36548886604745E-42   3.28910326638120E-15  -9.92025088221201E-15   1.62000000000000E+00
      1.62000000000000E+00   0.00000000000000E+00   0.00000000000000E+00   1.98260519655025E-04   4.43931896628235E-58
      1.98260519655025E-04   2.85131492603489E-15
      9.50000000000000E-01
      0.00000000000000E+00   0.00000000000000E+00   0.00000000000000E+00   0.00000000000000E+00  -1.98776746913865E-04
      2.86494799380499E-42  -1.98776746913865E-04   1.67097457717744E-15   1.80000000000000E+00   1.80000000000000E+00
      0.00000000000000E+00   0.00000000000000E+00   0.00000000000000E+00   0.00000000000000E+00   0.00000000000000E+00
      5.33796489535868E-15  -1.80000000000000E+00  -1.80000000000000E+00   0.00000000000000E+00   0.00000000000000E+00
      1.47799041751678E-17  -2.86494799380499E-42   1.47799041751678E-17  -9.94624622831677E-15   1.71000000000000E+00
      1.71000000000000E+00   0.00000000000000E+00   0.00000000000000E+00   1.98776746913850E-04   9.23173065524576E-59
      1.98776746913850E-04   2.93730675578066E-15
      1.00000000000000E+00
      0.00000000000000E+00   0.00000000000000E+00   0.00000000000000E+00   0.00000000000000E+00  -1.99271153194545E-04
      2.65166176442284E-42  -1.99271153194545E-04   1.67097291279549E-15   1.80000000000000E+00   1.80000000000000E+00
      0.00000000000000E+00   0.00000000000000E+00   0.00000000000000E+00   0.00000000000000E+00   0.00000000000000E+00
      5.27922947442773E-15  -1.80000000000000E+00  -1.80000000000000E+00   0.00000000000000E+00   0.00000000000000E+00
      1.69205599931406E-16  -2.65166176442284E-42   1.69205599931406E-16  -9.97261605473498E-15   1.80000000000000E+00
      1.80000000000000E+00   0.00000000000000E+00   0.00000000000000E+00   1.99271153194376E-04   9.74545716193676E-60
      1.99271153194376E-04   3.02241366751178E-15
}
