DF-ISE text

Info {
  version   = 1.0
  type      = xyplot
  datasets  = [
    "time"
    "source OuterVoltage" "source InnerVoltage" "source QuasiFermiPotential" "source DisplacementCurrent" "source eCurrent"
    "source hCurrent" "source TotalCurrent" "source Charge" "gate OuterVoltage" "gate InnerVoltage"
    "gate QuasiFermiPotential" "gate DisplacementCurrent" "gate eCurrent" "gate hCurrent" "gate TotalCurrent"
    "gate Charge" "substrate OuterVoltage" "substrate InnerVoltage" "substrate QuasiFermiPotential" "substrate DisplacementCurrent"
    "substrate eCurrent" "substrate hCurrent" "substrate TotalCurrent" "substrate Charge" "drain OuterVoltage"
    "drain InnerVoltage" "drain QuasiFermiPotential" "drain DisplacementCurrent" "drain eCurrent" "drain hCurrent"
    "drain TotalCurrent" "drain Charge" ]
  functions = [
    Time
    OuterVoltage InnerVoltage QuasiFermiPotential DisplacementCurrent eCurrent
    hCurrent TotalCurrent Charge OuterVoltage InnerVoltage
    QuasiFermiPotential DisplacementCurrent eCurrent hCurrent TotalCurrent
    Charge OuterVoltage InnerVoltage QuasiFermiPotential DisplacementCurrent
    eCurrent hCurrent TotalCurrent Charge OuterVoltage
    InnerVoltage QuasiFermiPotential DisplacementCurrent eCurrent hCurrent
    TotalCurrent Charge ]
}

Data {
      5.00000000000000E-02
      0.00000000000000E+00   0.00000000000000E+00   0.00000000000000E+00   0.00000000000000E+00  -1.89571577634350E-04
     -2.57769954120858E-25  -1.89571577634350E-04   5.31146328599771E-16   1.80000000000000E+00   1.80000000000000E+00
      0.00000000000000E+00   0.00000000000000E+00   0.00000000000000E+00   0.00000000000000E+00   0.00000000000000E+00
      3.09701525165911E-15   0.00000000000000E+00   0.00000000000000E+00   0.00000000000000E+00   0.00000000000000E+00
      5.65991204197004E-18   2.85034703837356E-25   5.65991232700474E-18  -4.23807057607959E-15   9.00000000000000E-02
      9.00000000000000E-02   0.00000000000000E+00   0.00000000000000E+00   1.89571577634344E-04  -2.72647497164976E-26
      1.89571577634344E-04   6.09908995820703E-16
      1.00000000000000E-01
      0.00000000000000E+00   0.00000000000000E+00   0.00000000000000E+00   0.00000000000000E+00  -3.51502149045298E-04
     -3.04813903200410E-25  -3.51502149045298E-04   5.31155228709563E-16   1.80000000000000E+00   1.80000000000000E+00
      0.00000000000000E+00   0.00000000000000E+00   0.00000000000000E+00   0.00000000000000E+00   0.00000000000000E+00
      2.98744184844085E-15   0.00000000000000E+00   0.00000000000000E+00   0.00000000000000E+00   0.00000000000000E+00
     -7.51079004214374E-18   3.07774878758217E-25  -7.51078973436887E-18  -4.20713275641251E-15   1.80000000000000E-01
      1.80000000000000E-01   0.00000000000000E+00   0.00000000000000E+00   3.51502149045305E-04  -2.96097555780697E-27
      3.51502149045305E-04   6.88535679262104E-16
      1.50000000000000E-01
      0.00000000000000E+00   0.00000000000000E+00   0.00000000000000E+00   0.00000000000000E+00  -4.85888944676113E-04
     -2.46116187415960E-25  -4.85888944676113E-04   5.29964236832765E-16   1.80000000000000E+00   1.80000000000000E+00
      0.00000000000000E+00   0.00000000000000E+00   0.00000000000000E+00   0.00000000000000E+00   0.00000000000000E+00
      2.87936989078574E-15   0.00000000000000E+00   0.00000000000000E+00   0.00000000000000E+00   0.00000000000000E+00
     -6.93930565799750E-18   2.46469887102116E-25  -6.93930541152762E-18  -4.17585489770636E-15   2.70000000000000E-01
      2.70000000000000E-01   0.00000000000000E+00   0.00000000000000E+00   4.85888944676120E-04  -3.53699686155626E-28
      4.85888944676120E-04   7.66520770087847E-16
      2.00000000000000E-01
      0.00000000000000E+00   0.00000000000000E+00   0.00000000000000E+00   0.00000000000000E+00  -5.94272695713040E-04
     -2.24481245422878E-25  -5.94272695713040E-04   5.27667911971334E-16   1.80000000000000E+00   1.80000000000000E+00
      0.00000000000000E+00   0.00000000000000E+00   0.00000000000000E+00   0.00000000000000E+00   0.00000000000000E+00
      2.77323429512460E-15   0.00000000000000E+00   0.00000000000000E+00   0.00000000000000E+00   0.00000000000000E+00
     -5.14010097893364E-18   2.24515958803236E-25  -5.14010075441768E-18  -4.14523102381570E-15   3.60000000000000E-01
      3.60000000000000E-01   0.00000000000000E+00   0.00000000000000E+00   5.94272695713045E-04  -3.47133803581423E-29
      5.94272695713045E-04   8.44328816719758E-16
      2.50000000000000E-01
      0.00000000000000E+00   0.00000000000000E+00   0.00000000000000E+00   0.00000000000000E+00  -6.79139487543126E-04
     -2.36756238227460E-25  -6.79139487543126E-04   5.24461424517706E-16   1.80000000000000E+00   1.80000000000000E+00
      0.00000000000000E+00   0.00000000000000E+00   0.00000000000000E+00   0.00000000000000E+00   0.00000000000000E+00
      2.66958163763991E-15   0.00000000000000E+00   0.00000000000000E+00   0.00000000000000E+00   0.00000000000000E+00
      1.04577560214178E-17   2.36760562823485E-25   1.04577562581784E-17  -4.11626860486496E-15   4.50000000000000E-01
      4.50000000000000E-01   0.00000000000000E+00   0.00000000000000E+00   6.79139487543116E-04  -4.32459602589509E-30
      6.79139487543116E-04   9.22225542707345E-16
      3.00000000000000E-01
      0.00000000000000E+00   0.00000000000000E+00   0.00000000000000E+00   0.00000000000000E+00  -7.43747256503845E-04
     -2.43203704111900E-25  -7.43747256503845E-04   5.20624837073749E-16   1.80000000000000E+00   1.80000000000000E+00
      0.00000000000000E+00   0.00000000000000E+00   0.00000000000000E+00   0.00000000000000E+00   0.00000000000000E+00
      2.56904401912244E-15   0.00000000000000E+00   0.00000000000000E+00   0.00000000000000E+00   0.00000000000000E+00
      3.01690145721771E-18   2.43204158484452E-25   3.01690170042187E-18  -4.08997547163905E-15   5.40000000000000E-01
      5.40000000000000E-01   0.00000000000000E+00   0.00000000000000E+00   7.43747256503842E-04  -4.54372551619500E-31
      7.43747256503842E-04   1.00030661544287E-15
      3.50000000000000E-01
      0.00000000000000E+00   0.00000000000000E+00   0.00000000000000E+00   0.00000000000000E+00  -7.91967176726704E-04
     -2.45919355740479E-25  -7.91967176726704E-04   5.16471652218312E-16   1.80000000000000E+00   1.80000000000000E+00
      0.00000000000000E+00   0.00000000000000E+00   0.00000000000000E+00   0.00000000000000E+00   0.00000000000000E+00
      2.47221271120692E-15   0.00000000000000E+00   0.00000000000000E+00   0.00000000000000E+00   0.00000000000000E+00
      2.45365129279653E-17   2.45919385359598E-25   2.45365131738847E-17  -4.06717951166626E-15   6.30000000000000E-01
      6.30000000000000E-01   0.00000000000000E+00   0.00000000000000E+00   7.91967176726679E-04  -2.96191190375375E-32
      7.91967176726679E-04   1.07849514824103E-15
      4.00000000000000E-01
      0.00000000000000E+00   0.00000000000000E+00   0.00000000000000E+00   0.00000000000000E+00  -8.27908736712152E-04
     -2.76412916720834E-25  -8.27908736712152E-04   5.12272010435551E-16   1.80000000000000E+00   1.80000000000000E+00
      0.00000000000000E+00   0.00000000000000E+00   0.00000000000000E+00   0.00000000000000E+00   0.00000000000000E+00
      2.37944158770898E-15   0.00000000000000E+00   0.00000000000000E+00   0.00000000000000E+00   0.00000000000000E+00
      7.25839214475368E-18   2.76412928387043E-25   7.25839242116661E-18  -4.04830013627081E-15   7.20000000000000E-01
      7.20000000000000E-01   0.00000000000000E+00   0.00000000000000E+00   8.27908736712146E-04  -1.16662086382632E-32
      8.27908736712146E-04   1.15658653812628E-15
      4.50000000000000E-01
      0.00000000000000E+00   0.00000000000000E+00   0.00000000000000E+00   0.00000000000000E+00  -8.55313591448662E-04
     -2.43787657083084E-25  -8.55313591448662E-04   5.08197717223683E-16   1.80000000000000E+00   1.80000000000000E+00
      0.00000000000000E+00   0.00000000000000E+00   0.00000000000000E+00   0.00000000000000E+00   0.00000000000000E+00
      2.29076139727621E-15   0.00000000000000E+00   0.00000000000000E+00   0.00000000000000E+00   0.00000000000000E+00
      1.50015857639344E-17   2.43787656816746E-25   1.50015860077221E-17  -4.03332515916315E-15   8.10000000000000E-01
      8.10000000000000E-01   0.00000000000000E+00   0.00000000000000E+00   8.55313591448648E-04   2.66338029089115E-34
      8.55313591448648E-04   1.23436604466326E-15
      5.00000000000000E-01
      0.00000000000000E+00   0.00000000000000E+00   0.00000000000000E+00   0.00000000000000E+00  -8.77078360077550E-04
     -2.59537076667926E-25  -8.77078360077550E-04   5.04322925783700E-16   1.80000000000000E+00   1.80000000000000E+00
      0.00000000000000E+00   0.00000000000000E+00   0.00000000000000E+00   0.00000000000000E+00   0.00000000000000E+00
      2.20595318112873E-15   0.00000000000000E+00   0.00000000000000E+00   0.00000000000000E+00   0.00000000000000E+00
     -1.71265590910944E-17   2.59537076753565E-25  -1.71265588315573E-17  -4.02199703547026E-15   9.00000000000000E-01
      9.00000000000000E-01   0.00000000000000E+00   0.00000000000000E+00   8.77078360077568E-04  -8.56385804564433E-35
      8.77078360077568E-04   1.31172092855783E-15
      5.50000000000000E-01
      0.00000000000000E+00   0.00000000000000E+00   0.00000000000000E+00   0.00000000000000E+00  -8.95139196018075E-04
     -2.73819056194816E-25  -8.95139196018075E-04   5.00663366780086E-16   1.80000000000000E+00   1.80000000000000E+00
      0.00000000000000E+00   0.00000000000000E+00   0.00000000000000E+00   0.00000000000000E+00   0.00000000000000E+00
      2.12474182021358E-15   0.00000000000000E+00   0.00000000000000E+00   0.00000000000000E+00   0.00000000000000E+00
      1.73582002450915E-17   2.73819056177587E-25   1.73582005189106E-17  -4.01407327305875E-15   9.90000000000000E-01
      9.90000000000000E-01   0.00000000000000E+00   0.00000000000000E+00   8.95139196018058E-04   1.72282793497722E-35
      8.95139196018058E-04   1.38866808606509E-15
      6.00000000000000E-01
      0.00000000000000E+00   0.00000000000000E+00   0.00000000000000E+00   0.00000000000000E+00  -9.10649410075570E-04
     -2.50300948252819E-25  -9.10649410075570E-04   4.97211226143957E-16   1.80000000000000E+00   1.80000000000000E+00
      0.00000000000000E+00   0.00000000000000E+00   0.00000000000000E+00   0.00000000000000E+00   0.00000000000000E+00
      2.04694772496218E-15   0.00000000000000E+00   0.00000000000000E+00   0.00000000000000E+00   0.00000000000000E+00
      8.08818385376151E-18   2.50300948248088E-25   8.08818410406246E-18  -4.00950578859445E-15   1.08000000000000E+00
      1.08000000000000E+00   0.00000000000000E+00   0.00000000000000E+00   9.10649410075560E-04   4.73089463283477E-36
      9.10649410075560E-04   1.46534683748831E-15
      6.50000000000000E-01
      0.00000000000000E+00   0.00000000000000E+00   0.00000000000000E+00   0.00000000000000E+00  -9.24328490300185E-04
     -2.67198180357583E-25  -9.24328490300185E-04   4.93945712947603E-16   1.80000000000000E+00   1.80000000000000E+00
      0.00000000000000E+00   0.00000000000000E+00   0.00000000000000E+00   0.00000000000000E+00   0.00000000000000E+00
      1.97245648487962E-15   0.00000000000000E+00   0.00000000000000E+00   0.00000000000000E+00   0.00000000000000E+00
      4.02958732189861E-17   2.67198180356795E-25   4.02958734861843E-17  -4.00845647348339E-15   1.17000000000000E+00
      1.17000000000000E+00   0.00000000000000E+00   0.00000000000000E+00   9.24328490300145E-04   7.87820408763391E-37
      9.24328490300145E-04   1.54205427565617E-15
      7.00000000000000E-01
      0.00000000000000E+00   0.00000000000000E+00   0.00000000000000E+00   0.00000000000000E+00  -9.36703926831221E-04
     -2.37147614709436E-25  -9.36703926831221E-04   4.90837343885344E-16   1.80000000000000E+00   1.80000000000000E+00
      0.00000000000000E+00   0.00000000000000E+00   0.00000000000000E+00   0.00000000000000E+00   0.00000000000000E+00
      1.90123378547611E-15   0.00000000000000E+00   0.00000000000000E+00   0.00000000000000E+00   0.00000000000000E+00
     -6.84135105122704E-18   2.37147614709345E-25  -6.84135081407942E-18  -4.01138238624833E-15   1.26000000000000E+00
      1.26000000000000E+00   0.00000000000000E+00   0.00000000000000E+00   9.36703926831227E-04   9.00929578731724E-38
      9.36703926831227E-04   1.61931125688687E-15
      7.50000000000000E-01
      0.00000000000000E+00   0.00000000000000E+00   0.00000000000000E+00   0.00000000000000E+00  -9.48044488367875E-04
     -2.60905893578932E-25  -9.48044488367875E-04   4.87874101769823E-16   1.80000000000000E+00   1.80000000000000E+00
      0.00000000000000E+00   0.00000000000000E+00   0.00000000000000E+00   0.00000000000000E+00   0.00000000000000E+00
      1.83390160233620E-15   0.00000000000000E+00   0.00000000000000E+00   0.00000000000000E+00   0.00000000000000E+00
      2.00565095441394E-14   2.60905893578912E-25   2.00565095444003E-14  -4.01963841745380E-15   1.35000000000000E+00
      1.35000000000000E+00   0.00000000000000E+00   0.00000000000000E+00   9.48044488347818E-04   1.94800722600358E-38
      9.48044488347818E-04   1.69786271334778E-15
      8.00000000000000E-01
      0.00000000000000E+00   0.00000000000000E+00   0.00000000000000E+00   0.00000000000000E+00  -9.58637209934501E-04
     -2.61314526299023E-25  -9.58637209934501E-04   4.85023757408740E-16   1.80000000000000E+00   1.80000000000000E+00
      0.00000000000000E+00   0.00000000000000E+00   0.00000000000000E+00   0.00000000000000E+00   0.00000000000000E+00
      1.77065366460065E-15   0.00000000000000E+00   0.00000000000000E+00   0.00000000000000E+00   0.00000000000000E+00
      2.06397280320128E-13   2.61314526299024E-25   2.06397280320389E-13  -4.03449694415615E-15   1.44000000000000E+00
      1.44000000000000E+00   0.00000000000000E+00   0.00000000000000E+00   9.58637209728104E-04  -1.09039243085191E-39
      9.58637209728104E-04   1.77881952214676E-15
      8.50000000000000E-01
      0.00000000000000E+00   0.00000000000000E+00   0.00000000000000E+00   0.00000000000000E+00  -9.68683531989542E-04
     -2.70369423288504E-25  -9.68683531989542E-04   4.82266021214749E-16   1.80000000000000E+00   1.80000000000000E+00
      0.00000000000000E+00   0.00000000000000E+00   0.00000000000000E+00   0.00000000000000E+00   0.00000000000000E+00
      1.71179190461804E-15   0.00000000000000E+00   0.00000000000000E+00   0.00000000000000E+00   0.00000000000000E+00
      3.80224989883674E-13   2.70369423288504E-25   3.80224989883944E-13  -4.05698515527611E-15   1.53000000000000E+00
      1.53000000000000E+00   0.00000000000000E+00   0.00000000000000E+00   9.68683531609317E-04  -1.28852695684192E-40
      9.68683531609317E-04   1.86292722944332E-15
      9.00000000000000E-01
      0.00000000000000E+00   0.00000000000000E+00   0.00000000000000E+00   0.00000000000000E+00  -9.78360245839677E-04
     -2.40078264326904E-25  -9.78360245839677E-04   4.79580439549463E-16   1.80000000000000E+00   1.80000000000000E+00
      0.00000000000000E+00   0.00000000000000E+00   0.00000000000000E+00   0.00000000000000E+00   0.00000000000000E+00
      1.65661192374287E-15   0.00000000000000E+00   0.00000000000000E+00   0.00000000000000E+00   0.00000000000000E+00
      9.65110737117495E-15   2.40078264326904E-25   9.65110737141503E-15  -4.08571575250506E-15   1.62000000000000E+00
      1.62000000000000E+00   0.00000000000000E+00   0.00000000000000E+00   9.78360245830026E-04   7.22529793129829E-41
      9.78360245830026E-04   1.94952338921274E-15
      9.50000000000000E-01
      0.00000000000000E+00   0.00000000000000E+00   0.00000000000000E+00   0.00000000000000E+00  -9.87545318591543E-04
     -2.62648657865083E-25  -9.87545318591543E-04   4.76975865103750E-16   1.80000000000000E+00   1.80000000000000E+00
      0.00000000000000E+00   0.00000000000000E+00   0.00000000000000E+00   0.00000000000000E+00   0.00000000000000E+00
      1.60426904290147E-15   0.00000000000000E+00   0.00000000000000E+00   0.00000000000000E+00   0.00000000000000E+00
     -1.15049698013833E-17   2.62648657865083E-25  -1.15049695387346E-17  -4.11824215326578E-15   1.71000000000000E+00
      1.71000000000000E+00   0.00000000000000E+00   0.00000000000000E+00   9.87545318591554E-04   2.87924864803875E-42
      9.87545318591554E-04   2.03699724526056E-15
      1.00000000000000E+00
      0.00000000000000E+00   0.00000000000000E+00   0.00000000000000E+00   0.00000000000000E+00  -9.96496432841357E-04
     -2.37494878788245E-25  -9.96496432841357E-04   4.74426644828814E-16   1.80000000000000E+00   1.80000000000000E+00
      0.00000000000000E+00   0.00000000000000E+00   0.00000000000000E+00   0.00000000000000E+00   0.00000000000000E+00
      1.55368140504197E-15   0.00000000000000E+00   0.00000000000000E+00   0.00000000000000E+00   0.00000000000000E+00
      6.02966076058408E-17   2.37494878788245E-25   6.02966078433357E-17  -4.15232941422296E-15   1.80000000000000E+00
      1.80000000000000E+00   0.00000000000000E+00   0.00000000000000E+00   9.96496432841296E-04  -2.00520589454432E-42
      9.96496432841296E-04   2.12422136435217E-15
}
