DF-ISE text

Info {
  version   = 1.0
  type      = xyplot
  datasets  = [
    "time"
    "source OuterVoltage" "source InnerVoltage" "source QuasiFermiPotential" "source DisplacementCurrent" "source eCurrent"
    "source hCurrent" "source TotalCurrent" "source Charge" "gate OuterVoltage" "gate InnerVoltage"
    "gate QuasiFermiPotential" "gate DisplacementCurrent" "gate eCurrent" "gate hCurrent" "gate TotalCurrent"
    "gate Charge" "substrate OuterVoltage" "substrate InnerVoltage" "substrate QuasiFermiPotential" "substrate DisplacementCurrent"
    "substrate eCurrent" "substrate hCurrent" "substrate TotalCurrent" "substrate Charge" "drain OuterVoltage"
    "drain InnerVoltage" "drain QuasiFermiPotential" "drain DisplacementCurrent" "drain eCurrent" "drain hCurrent"
    "drain TotalCurrent" "drain Charge" ]
  functions = [
    Time
    OuterVoltage InnerVoltage QuasiFermiPotential DisplacementCurrent eCurrent
    hCurrent TotalCurrent Charge OuterVoltage InnerVoltage
    QuasiFermiPotential DisplacementCurrent eCurrent hCurrent TotalCurrent
    Charge OuterVoltage InnerVoltage QuasiFermiPotential DisplacementCurrent
    eCurrent hCurrent TotalCurrent Charge OuterVoltage
    InnerVoltage QuasiFermiPotential DisplacementCurrent eCurrent hCurrent
    TotalCurrent Charge ]
}

Data {
      5.00000000000000E-02
      0.00000000000000E+00   0.00000000000000E+00   0.00000000000000E+00   0.00000000000000E+00  -1.57053278177659E-14
      3.17701177186706E-38  -1.57053278177659E-14   2.02645943370234E-15   9.00000000000000E-02   9.00000000000000E-02
      0.00000000000000E+00   0.00000000000000E+00   0.00000000000000E+00   0.00000000000000E+00   0.00000000000000E+00
      9.93579085214832E-16  -1.35000000000000E+00  -1.35000000000000E+00   0.00000000000000E+00   0.00000000000000E+00
      1.75977624094455E-14  -3.79527715817958E-38   1.75977624094455E-14  -5.10399624838482E-15   5.00000000000000E-02
      5.00000000000000E-02   0.00000000000000E+00   0.00000000000000E+00  -1.89243459167966E-15   6.18265386312523E-39
     -1.89243459167966E-15   2.08395772946765E-15
      1.00000000000000E-01
      0.00000000000000E+00   0.00000000000000E+00   0.00000000000000E+00   0.00000000000000E+00   8.73345137892609E-15
      3.65524089445116E-38   8.73345137892609E-15   1.96867431741814E-15   1.80000000000000E-01   1.80000000000000E-01
      0.00000000000000E+00   0.00000000000000E+00   0.00000000000000E+00   0.00000000000000E+00   0.00000000000000E+00
      1.14793143908187E-15  -1.35000000000000E+00  -1.35000000000000E+00   0.00000000000000E+00   0.00000000000000E+00
     -9.26411600078969E-15  -5.26866881010999E-38  -9.26411600078969E-15  -5.14333942222212E-15   5.00000000000000E-02
      5.00000000000000E-02   0.00000000000000E+00   0.00000000000000E+00   5.30664621863601E-16   1.61342791565883E-38
      5.30664621863601E-16   2.02673366572211E-15
      1.50000000000000E-01
      0.00000000000000E+00   0.00000000000000E+00   0.00000000000000E+00   0.00000000000000E+00   6.60042600163642E-14
      2.79586395030762E-38   6.60042600163642E-14   1.91029141741381E-15   2.70000000000000E-01   2.70000000000000E-01
      0.00000000000000E+00   0.00000000000000E+00   0.00000000000000E+00   0.00000000000000E+00   0.00000000000000E+00
      1.30424377011936E-15  -1.35000000000000E+00  -1.35000000000000E+00   0.00000000000000E+00   0.00000000000000E+00
     -8.78541135007925E-14  -3.51997632714517E-38  -8.78541135007925E-14  -5.18313098102491E-15   5.00000000000000E-02
      5.00000000000000E-02   0.00000000000000E+00   0.00000000000000E+00   2.18498534844282E-14   7.24112376837550E-39
      2.18498534844282E-14   1.96859579349174E-15
      2.00000000000000E-01
      0.00000000000000E+00   0.00000000000000E+00   0.00000000000000E+00   0.00000000000000E+00   1.77802396763074E-14
      2.81995519316456E-38   1.77802396763074E-14   1.85278250844392E-15   3.60000000000000E-01   3.60000000000000E-01
      0.00000000000000E+00   0.00000000000000E+00   0.00000000000000E+00   0.00000000000000E+00   0.00000000000000E+00
      1.46439831042479E-15  -1.35000000000000E+00  -1.35000000000000E+00   0.00000000000000E+00   0.00000000000000E+00
     -3.70123842668022E-14  -3.87719612832799E-38  -3.70123842668022E-14  -5.22750964948883E-15   5.00000000000000E-02
      5.00000000000000E-02   0.00000000000000E+00   0.00000000000000E+00   1.92321445904948E-14   1.05724093516343E-38
      1.92321445904948E-14   1.91032883062012E-15
      2.50000000000000E-01
      0.00000000000000E+00   0.00000000000000E+00   0.00000000000000E+00   0.00000000000000E+00  -8.81874050661806E-14
      3.00003315768349E-38  -8.81874050661806E-14   1.79948357212577E-15   4.50000000000000E-01   4.50000000000000E-01
      0.00000000000000E+00   0.00000000000000E+00   0.00000000000000E+00   0.00000000000000E+00   0.00000000000000E+00
      1.63354567510533E-15  -1.35000000000000E+00  -1.35000000000000E+00   0.00000000000000E+00   0.00000000000000E+00
     -5.59293906716786E-19  -3.78292496511974E-38  -5.59293906716786E-19  -5.28723385615383E-15   5.00000000000000E-02
      5.00000000000000E-02   0.00000000000000E+00   0.00000000000000E+00   8.81879643600874E-14   7.82891807436251E-39
      8.81879643600874E-14   1.85420460892274E-15
      3.00000000000000E-01
      0.00000000000000E+00   0.00000000000000E+00   0.00000000000000E+00   0.00000000000000E+00  -1.93343484111864E-12
      3.12487828404030E-38  -1.93343484111864E-12   1.75373724750395E-15   5.40000000000000E-01   5.40000000000000E-01
      0.00000000000000E+00   0.00000000000000E+00   0.00000000000000E+00   0.00000000000000E+00   0.00000000000000E+00
      1.81853322587893E-15  -1.35000000000000E+00  -1.35000000000000E+00   0.00000000000000E+00   0.00000000000000E+00
     -3.58665558367336E-18  -4.69214175781119E-38  -3.58665558367336E-18  -5.37630087879570E-15   5.00000000000000E-02
      5.00000000000000E-02   0.00000000000000E+00   0.00000000000000E+00   1.93343842777422E-12   1.56726347377090E-38
      1.93343842777422E-12   1.80403040541282E-15
      3.50000000000000E-01
      0.00000000000000E+00   0.00000000000000E+00   0.00000000000000E+00   0.00000000000000E+00  -4.26761892131600E-11
      3.41667709115365E-38  -4.26761892131600E-11   1.71565266518250E-15   6.30000000000000E-01   6.30000000000000E-01
      0.00000000000000E+00   0.00000000000000E+00   0.00000000000000E+00   0.00000000000000E+00   0.00000000000000E+00
      2.02293131624274E-15  -1.35000000000000E+00  -1.35000000000000E+00   0.00000000000000E+00   0.00000000000000E+00
     -2.38375507558463E-18  -4.51914809813392E-38  -2.38375507558463E-18  -5.50044256396469E-15   5.00000000000000E-02
      5.00000000000000E-02   0.00000000000000E+00   0.00000000000000E+00   4.26761915969150E-11   1.10247100698026E-38
      4.26761915969150E-11   1.76185858253945E-15
      4.00000000000000E-01
      0.00000000000000E+00   0.00000000000000E+00   0.00000000000000E+00   0.00000000000000E+00  -9.45612796852299E-10
      5.19644121103757E-38  -9.45612796852299E-10   1.68350818062675E-15   7.20000000000000E-01   7.20000000000000E-01
      0.00000000000000E+00   0.00000000000000E+00   0.00000000000000E+00   0.00000000000000E+00   0.00000000000000E+00
      2.24838409648291E-15  -1.35000000000000E+00  -1.35000000000000E+00   0.00000000000000E+00   0.00000000000000E+00
      3.00931604754310E-18  -6.47924432101535E-38   3.00931604754310E-18  -5.65850673254097E-15   5.00000000000000E-02
      5.00000000000000E-02   0.00000000000000E+00   0.00000000000000E+00   9.45612793842983E-10   1.28280310997778E-38
      9.45612793842983E-10   1.72661445543131E-15
      4.50000000000000E-01
      0.00000000000000E+00   0.00000000000000E+00   0.00000000000000E+00   0.00000000000000E+00  -2.05821166693257E-08
      4.73869198327848E-38  -2.05821166693257E-08   1.65584870126959E-15   8.10000000000000E-01   8.10000000000000E-01
      0.00000000000000E+00   0.00000000000000E+00   0.00000000000000E+00   0.00000000000000E+00   0.00000000000000E+00
      2.50061785216354E-15  -1.35000000000000E+00  -1.35000000000000E+00   0.00000000000000E+00   0.00000000000000E+00
     -5.97588090723873E-18  -5.86893414702600E-38  -5.97588090723873E-18  -5.85305017046870E-15   5.00000000000000E-02
      5.00000000000000E-02   0.00000000000000E+00   0.00000000000000E+00   2.05821166753016E-08   1.13024216374751E-38
      2.05821166753016E-08   1.69658361703557E-15
      5.00000000000000E-01
      0.00000000000000E+00   0.00000000000000E+00   0.00000000000000E+00   0.00000000000000E+00  -3.52405849584407E-07
      3.92749046405570E-38  -3.52405849584407E-07   1.63151131579872E-15   9.00000000000000E-01   9.00000000000000E-01
      0.00000000000000E+00   0.00000000000000E+00   0.00000000000000E+00   0.00000000000000E+00   0.00000000000000E+00
      2.79905748203983E-15  -1.35000000000000E+00  -1.35000000000000E+00   0.00000000000000E+00   0.00000000000000E+00
     -1.80829611051347E-18  -5.28444317612721E-38  -1.80829611051347E-18  -6.10107132577209E-15   5.00000000000000E-02
      5.00000000000000E-02   0.00000000000000E+00   0.00000000000000E+00   3.52405849586215E-07   1.35695271207151E-38
      3.52405849586215E-07   1.67050252793354E-15
      5.50000000000000E-01
      0.00000000000000E+00   0.00000000000000E+00   0.00000000000000E+00   0.00000000000000E+00  -2.18935979645016E-06
      3.75681811398097E-38  -2.18935979645016E-06   1.60948643711336E-15   9.90000000000000E-01   9.90000000000000E-01
      0.00000000000000E+00   0.00000000000000E+00   0.00000000000000E+00   0.00000000000000E+00   0.00000000000000E+00
      3.18897774157785E-15  -1.35000000000000E+00  -1.35000000000000E+00   0.00000000000000E+00   0.00000000000000E+00
      6.38682740453007E-19  -4.94748164575860E-38   6.38682740453007E-19  -6.44580274472502E-15   5.00000000000000E-02
      5.00000000000000E-02   0.00000000000000E+00   0.00000000000000E+00   2.18935979644952E-06   1.19066353177763E-38
      2.18935979644952E-06   1.64733856603382E-15
      6.00000000000000E-01
      0.00000000000000E+00   0.00000000000000E+00   0.00000000000000E+00   0.00000000000000E+00  -5.19483284909264E-06
      3.36193738347798E-38  -5.19483284909264E-06   1.58894967615566E-15   1.08000000000000E+00   1.08000000000000E+00
      0.00000000000000E+00   0.00000000000000E+00   0.00000000000000E+00   0.00000000000000E+00   0.00000000000000E+00
      3.66194302303091E-15  -1.35000000000000E+00  -1.35000000000000E+00   0.00000000000000E+00   0.00000000000000E+00
      1.44765635376147E-17  -4.71609390747828E-38   1.44765635376147E-17  -6.87698231346193E-15   5.00000000000000E-02
      5.00000000000000E-02   0.00000000000000E+00   0.00000000000000E+00   5.19483284907817E-06   1.35415652400030E-38
      5.19483284907817E-06   1.62608961427534E-15
      6.50000000000000E-01
      0.00000000000000E+00   0.00000000000000E+00   0.00000000000000E+00   0.00000000000000E+00  -8.38625591406538E-06
      3.25351622439565E-38  -8.38625591406538E-06   1.56940488588267E-15   1.17000000000000E+00   1.17000000000000E+00
      0.00000000000000E+00   0.00000000000000E+00   0.00000000000000E+00   0.00000000000000E+00   0.00000000000000E+00
      4.17261347601978E-15  -1.35000000000000E+00  -1.35000000000000E+00   0.00000000000000E+00   0.00000000000000E+00
      1.48714259410018E-15  -4.42857604731737E-38   1.48714259410018E-15  -7.34804708831280E-15   5.00000000000000E-02
      5.00000000000000E-02   0.00000000000000E+00   0.00000000000000E+00   8.38625591257824E-06   1.17505982292172E-38
      8.38625591257824E-06   1.60602872641035E-15
      7.00000000000000E-01
      0.00000000000000E+00   0.00000000000000E+00   0.00000000000000E+00   0.00000000000000E+00  -1.15283916499024E-05
      2.95809933702399E-38  -1.15283916499024E-05   1.55057373703973E-15   1.26000000000000E+00   1.26000000000000E+00
      0.00000000000000E+00   0.00000000000000E+00   0.00000000000000E+00   0.00000000000000E+00   0.00000000000000E+00
      4.70068198817826E-15  -1.35000000000000E+00  -1.35000000000000E+00   0.00000000000000E+00   0.00000000000000E+00
     -5.67085876917788E-18  -3.84263042488611E-38  -5.67085876917788E-18  -7.83804475983736E-15   5.00000000000000E-02
      5.00000000000000E-02   0.00000000000000E+00   0.00000000000000E+00   1.15283916499080E-05   8.84531087862121E-39
      1.15283916499080E-05   1.58678903461935E-15
      7.50000000000000E-01
      0.00000000000000E+00   0.00000000000000E+00   0.00000000000000E+00   0.00000000000000E+00  -1.45820513135776E-05
      4.53301004973200E-38  -1.45820513135776E-05   1.53228528970080E-15   1.35000000000000E+00   1.35000000000000E+00
      0.00000000000000E+00   0.00000000000000E+00   0.00000000000000E+00   0.00000000000000E+00   0.00000000000000E+00
      5.23842570724320E-15  -1.35000000000000E+00  -1.35000000000000E+00   0.00000000000000E+00   0.00000000000000E+00
      1.70626582888414E-18  -6.10310867050482E-38   1.70626582888414E-18  -8.33887303947639E-15   5.00000000000000E-02
      5.00000000000000E-02   0.00000000000000E+00   0.00000000000000E+00   1.45820513135759E-05   1.57009862077283E-38
      1.45820513135759E-05   1.56816204253238E-15
      8.00000000000000E-01
      0.00000000000000E+00   0.00000000000000E+00   0.00000000000000E+00   0.00000000000000E+00  -1.75447350664564E-05
      3.73218890884416E-38  -1.75447350664564E-05   1.51442508657751E-15   1.44000000000000E+00   1.44000000000000E+00
      0.00000000000000E+00   0.00000000000000E+00   0.00000000000000E+00   0.00000000000000E+00   0.00000000000000E+00
      5.78230493505438E-15  -1.35000000000000E+00  -1.35000000000000E+00   0.00000000000000E+00   0.00000000000000E+00
     -1.72047810825658E-17  -5.01962664559834E-38  -1.72047810825658E-17  -8.84674277978863E-15   5.00000000000000E-02
      5.00000000000000E-02   0.00000000000000E+00   0.00000000000000E+00   1.75447350664736E-05   1.28743773675418E-38
      1.75447350664736E-05   1.55001275815673E-15
      8.50000000000000E-01
      0.00000000000000E+00   0.00000000000000E+00   0.00000000000000E+00   0.00000000000000E+00  -2.04215354074472E-05
      3.85527076333839E-38  -2.04215354074472E-05   1.49691191419427E-15   1.53000000000000E+00   1.53000000000000E+00
      0.00000000000000E+00   0.00000000000000E+00   0.00000000000000E+00   0.00000000000000E+00   0.00000000000000E+00
      6.33042537121887E-15  -1.35000000000000E+00  -1.35000000000000E+00   0.00000000000000E+00   0.00000000000000E+00
     -7.40722842733185E-12  -5.18969395415744E-38  -7.40722842733185E-12  -9.35958447828026E-15   5.00000000000000E-02
      5.00000000000000E-02   0.00000000000000E+00   0.00000000000000E+00   2.04215428146756E-05   1.33442319081905E-38
      2.04215428146756E-05   1.53224719286710E-15
      9.00000000000000E-01
      0.00000000000000E+00   0.00000000000000E+00   0.00000000000000E+00   0.00000000000000E+00  -2.32187896178221E-05
      3.46535942795493E-38  -2.32187896178221E-05   1.47968577096420E-15   1.62000000000000E+00   1.62000000000000E+00
      0.00000000000000E+00   0.00000000000000E+00   0.00000000000000E+00   0.00000000000000E+00   0.00000000000000E+00
      6.88165697766244E-15  -1.35000000000000E+00  -1.35000000000000E+00   0.00000000000000E+00   0.00000000000000E+00
     -3.91472578882994E-12  -4.57004147560420E-38  -3.91472578882994E-12  -9.87613956455632E-15   5.00000000000000E-02
      5.00000000000000E-02   0.00000000000000E+00   0.00000000000000E+00   2.32187935325479E-05   1.10468204764927E-38
      2.32187935325479E-05   1.51479681592968E-15
      9.50000000000000E-01
      0.00000000000000E+00   0.00000000000000E+00   0.00000000000000E+00   0.00000000000000E+00  -2.59424821730912E-05
      3.18309705677122E-38  -2.59424821730912E-05   1.46270096641948E-15   1.71000000000000E+00   1.71000000000000E+00
      0.00000000000000E+00   0.00000000000000E+00   0.00000000000000E+00   0.00000000000000E+00   0.00000000000000E+00
      7.43527115399983E-15  -1.35000000000000E+00  -1.35000000000000E+00   0.00000000000000E+00   0.00000000000000E+00
     -2.17116459275041E-12  -3.78724131920537E-38  -2.17116459275041E-12  -1.03955820952693E-14   5.00000000000000E-02
      5.00000000000000E-02   0.00000000000000E+00   0.00000000000000E+00   2.59424843442558E-05   6.04144262434146E-39
      2.59424843442558E-05   1.49760997484999E-15
      1.00000000000000E+00
      0.00000000000000E+00   0.00000000000000E+00   0.00000000000000E+00   0.00000000000000E+00  -2.85978882957818E-05
      4.02185400187327E-38  -2.85978882957818E-05   1.44592188443201E-15   1.80000000000000E+00   1.80000000000000E+00
      0.00000000000000E+00   0.00000000000000E+00   0.00000000000000E+00   0.00000000000000E+00   0.00000000000000E+00
      7.99076994844204E-15  -1.35000000000000E+00  -1.35000000000000E+00   0.00000000000000E+00   0.00000000000000E+00
     -1.25466361895893E-12  -5.12076635010504E-38  -1.25466361895893E-12  -1.09173385575513E-14   5.00000000000000E-02
      5.00000000000000E-02   0.00000000000000E+00   0.00000000000000E+00   2.85978895504454E-05   1.09891234823177E-38
      2.85978895504454E-05   1.48064672467722E-15
}
