DF-ISE text

Info {
  version   = 1.0
  type      = xyplot
  datasets  = [
    "time"
    "source OuterVoltage" "source InnerVoltage" "source QuasiFermiPotential" "source DisplacementCurrent" "source eCurrent"
    "source hCurrent" "source TotalCurrent" "source Charge" "gate OuterVoltage" "gate InnerVoltage"
    "gate QuasiFermiPotential" "gate DisplacementCurrent" "gate eCurrent" "gate hCurrent" "gate TotalCurrent"
    "gate Charge" "substrate OuterVoltage" "substrate InnerVoltage" "substrate QuasiFermiPotential" "substrate DisplacementCurrent"
    "substrate eCurrent" "substrate hCurrent" "substrate TotalCurrent" "substrate Charge" "drain OuterVoltage"
    "drain InnerVoltage" "drain QuasiFermiPotential" "drain DisplacementCurrent" "drain eCurrent" "drain hCurrent"
    "drain TotalCurrent" "drain Charge" ]
  functions = [
    Time
    OuterVoltage InnerVoltage QuasiFermiPotential DisplacementCurrent eCurrent
    hCurrent TotalCurrent Charge OuterVoltage InnerVoltage
    QuasiFermiPotential DisplacementCurrent eCurrent hCurrent TotalCurrent
    Charge OuterVoltage InnerVoltage QuasiFermiPotential DisplacementCurrent
    eCurrent hCurrent TotalCurrent Charge OuterVoltage
    InnerVoltage QuasiFermiPotential DisplacementCurrent eCurrent hCurrent
    TotalCurrent Charge ]
}

Data {
      5.00000000000000E-02
      0.00000000000000E+00   0.00000000000000E+00   0.00000000000000E+00   0.00000000000000E+00  -9.39373687376427E-09
     -2.96185572763458E-38  -9.39373687376427E-09   1.90673777493139E-15   9.00000000000000E-02   9.00000000000000E-02
      0.00000000000000E+00   0.00000000000000E+00   0.00000000000000E+00   0.00000000000000E+00   0.00000000000000E+00
     -5.29364676998495E-16  -1.35000000000000E+00  -1.35000000000000E+00   0.00000000000000E+00   0.00000000000000E+00
      5.03167112062802E-14   2.37307548566040E-38   5.03167112062802E-14  -3.34625718096174E-15   5.00000000000000E-02
      5.00000000000000E-02   0.00000000000000E+00   0.00000000000000E+00   9.39368655705307E-09   5.88780241974185E-39
      9.39368655705307E-09   1.96888408302884E-15
      1.00000000000000E-01
      0.00000000000000E+00   0.00000000000000E+00   0.00000000000000E+00   0.00000000000000E+00  -4.52124898583047E-08
     -2.41306924746211E-38  -4.52124898583047E-08   1.84684901515612E-15   1.80000000000000E-01   1.80000000000000E-01
      0.00000000000000E+00   0.00000000000000E+00   0.00000000000000E+00   0.00000000000000E+00   0.00000000000000E+00
     -4.09836776137056E-16  -1.35000000000000E+00  -1.35000000000000E+00   0.00000000000000E+00   0.00000000000000E+00
     -1.41698481549992E-15   2.09427769834974E-38  -1.41698481549992E-15  -3.34721654659604E-15   5.00000000000000E-02
      5.00000000000000E-02   0.00000000000000E+00   0.00000000000000E+00   4.52124912752896E-08   3.18791549112369E-39
      4.52124912752896E-08   1.91020430757699E-15
      1.50000000000000E-01
      0.00000000000000E+00   0.00000000000000E+00   0.00000000000000E+00   0.00000000000000E+00  -2.27667504654856E-07
     -2.14659571123368E-38  -2.27667504654856E-07   1.78569755104777E-15   2.70000000000000E-01   2.70000000000000E-01
      0.00000000000000E+00   0.00000000000000E+00   0.00000000000000E+00   0.00000000000000E+00   0.00000000000000E+00
     -2.86240405268832E-16  -1.35000000000000E+00  -1.35000000000000E+00   0.00000000000000E+00   0.00000000000000E+00
     -3.79078169345966E-19   1.93858926444902E-38  -3.79078169345966E-19  -3.34960311613569E-15   5.00000000000000E-02
      5.00000000000000E-02   0.00000000000000E+00   0.00000000000000E+00   2.27667504655235E-07   2.08006446784659E-39
      2.27667504655235E-07   1.85014597035675E-15
      2.00000000000000E-01
      0.00000000000000E+00   0.00000000000000E+00   0.00000000000000E+00   0.00000000000000E+00  -1.13195910654909E-06
     -1.56679685079077E-38  -1.13195910654909E-06   1.72480458682481E-15   3.60000000000000E-01   3.60000000000000E-01
      0.00000000000000E+00   0.00000000000000E+00   0.00000000000000E+00   0.00000000000000E+00   0.00000000000000E+00
     -1.56219608523127E-16  -1.35000000000000E+00  -1.35000000000000E+00   0.00000000000000E+00   0.00000000000000E+00
      7.00640628157228E-19   1.48990607200164E-38   7.00640628157228E-19  -3.35786981965175E-15   5.00000000000000E-02
      5.00000000000000E-02   0.00000000000000E+00   0.00000000000000E+00   1.13195910654839E-06   7.68907787891312E-40
      1.13195910654839E-06   1.78928484135007E-15
      2.50000000000000E-01
      0.00000000000000E+00   0.00000000000000E+00   0.00000000000000E+00   0.00000000000000E+00  -4.68673453686002E-06
     -2.95939875395244E-38  -4.68673453686002E-06   1.66850276141193E-15   4.50000000000000E-01   4.50000000000000E-01
      0.00000000000000E+00   0.00000000000000E+00   0.00000000000000E+00   0.00000000000000E+00   0.00000000000000E+00
     -1.37240251293512E-17  -1.35000000000000E+00  -1.35000000000000E+00   0.00000000000000E+00   0.00000000000000E+00
      5.27622378732132E-17   2.65197332990410E-38   5.27622378732132E-17  -3.38459518587778E-15   5.00000000000000E-02
      5.00000000000000E-02   0.00000000000000E+00   0.00000000000000E+00   4.68673453680726E-06   3.07425424048339E-39
      4.68673453680726E-06   1.72981644959520E-15
      3.00000000000000E-01
      0.00000000000000E+00   0.00000000000000E+00   0.00000000000000E+00   0.00000000000000E+00  -1.31208349536660E-05
     -2.94675582940672E-38  -1.31208349536660E-05   1.62160326399858E-15   5.40000000000000E-01   5.40000000000000E-01
      0.00000000000000E+00   0.00000000000000E+00   0.00000000000000E+00   0.00000000000000E+00   0.00000000000000E+00
      1.49247223444094E-16  -1.35000000000000E+00  -1.35000000000000E+00   0.00000000000000E+00   0.00000000000000E+00
     -5.17492991472990E-15   2.35401065498897E-38  -5.17492991472990E-15  -3.44751954331233E-15   5.00000000000000E-02
      5.00000000000000E-02   0.00000000000000E+00   0.00000000000000E+00   1.31208349588409E-05   5.92745174417753E-39
      1.31208349588409E-05   1.67666905586966E-15
      3.50000000000000E-01
      0.00000000000000E+00   0.00000000000000E+00   0.00000000000000E+00   0.00000000000000E+00  -2.41528586505642E-05
     -2.15087420470894E-38  -2.41528586505642E-05   1.58364959457513E-15   6.30000000000000E-01   6.30000000000000E-01
      0.00000000000000E+00   0.00000000000000E+00   0.00000000000000E+00   0.00000000000000E+00   0.00000000000000E+00
      3.33332236252734E-16  -1.35000000000000E+00  -1.35000000000000E+00   0.00000000000000E+00   0.00000000000000E+00
     -8.02656333822564E-16   1.88681577465431E-38  -8.02656333822564E-16  -3.55020265550517E-15   5.00000000000000E-02
      5.00000000000000E-02   0.00000000000000E+00   0.00000000000000E+00   2.41528586513668E-05   2.64058430054629E-39
      2.41528586513668E-05   1.63322082467730E-15
      4.00000000000000E-01
      0.00000000000000E+00   0.00000000000000E+00   0.00000000000000E+00   0.00000000000000E+00  -3.46048646909480E-05
     -3.59421704570414E-38  -3.46048646909480E-05   1.55141033468731E-15   7.20000000000000E-01   7.20000000000000E-01
      0.00000000000000E+00   0.00000000000000E+00   0.00000000000000E+00   0.00000000000000E+00   0.00000000000000E+00
      5.31482035872889E-16  -1.35000000000000E+00  -1.35000000000000E+00   0.00000000000000E+00   0.00000000000000E+00
     -2.59006921229055E-18   3.60017614443655E-38  -2.59006921229055E-18  -3.68031297764317E-15   5.00000000000000E-02
      5.00000000000000E-02   0.00000000000000E+00   0.00000000000000E+00   3.46048646909506E-05  -5.95909873241635E-41
      3.46048646909506E-05   1.59742060708298E-15
      4.50000000000000E-01
      0.00000000000000E+00   0.00000000000000E+00   0.00000000000000E+00   0.00000000000000E+00  -4.38458588925249E-05
     -2.84274930509247E-38  -4.38458588925249E-05   1.52258801378283E-15   8.10000000000000E-01   8.10000000000000E-01
      0.00000000000000E+00   0.00000000000000E+00   0.00000000000000E+00   0.00000000000000E+00   0.00000000000000E+00
      7.37727905147220E-16  -1.35000000000000E+00  -1.35000000000000E+00   0.00000000000000E+00   0.00000000000000E+00
     -8.34762934495408E-14   2.56038000584979E-38  -8.34762934495408E-14  -3.82659953573166E-15   5.00000000000000E-02
      5.00000000000000E-02   0.00000000000000E+00   0.00000000000000E+00   4.38458589760012E-05   2.82369299242679E-39
      4.38458589760012E-05   1.56628361680161E-15
      5.00000000000000E-01
      0.00000000000000E+00   0.00000000000000E+00   0.00000000000000E+00   0.00000000000000E+00  -5.20476697218193E-05
     -2.19264898469176E-38  -5.20476697218193E-05   1.49591795264180E-15   9.00000000000000E-01   9.00000000000000E-01
      0.00000000000000E+00   0.00000000000000E+00   0.00000000000000E+00   0.00000000000000E+00   0.00000000000000E+00
      9.48826873477976E-16  -1.35000000000000E+00  -1.35000000000000E+00   0.00000000000000E+00   0.00000000000000E+00
     -3.03888344064432E-15   2.26449766210767E-38  -3.03888344064432E-15  -3.98274061166167E-15   5.00000000000000E-02
      5.00000000000000E-02   0.00000000000000E+00   0.00000000000000E+00   5.20476697248582E-05  -7.18486774159099E-40
      5.20476697248582E-05   1.53799578554189E-15
      5.50000000000000E-01
      0.00000000000000E+00   0.00000000000000E+00   0.00000000000000E+00   0.00000000000000E+00  -5.94262961905508E-05
     -2.89435805531787E-38  -5.94262961905508E-05   1.47069026747606E-15   9.90000000000000E-01   9.90000000000000E-01
      0.00000000000000E+00   0.00000000000000E+00   0.00000000000000E+00   0.00000000000000E+00   0.00000000000000E+00
      1.16306671441845E-15  -1.35000000000000E+00  -1.35000000000000E+00   0.00000000000000E+00   0.00000000000000E+00
     -1.43621902621531E-16   2.86882041090741E-38  -1.43621902621531E-16  -4.14531471944728E-15   5.00000000000000E-02
      5.00000000000000E-02   0.00000000000000E+00   0.00000000000000E+00   5.94262961906944E-05   2.55376444104586E-40
      5.94262961906944E-05   1.51155773755278E-15
      6.00000000000000E-01
      0.00000000000000E+00   0.00000000000000E+00   0.00000000000000E+00   0.00000000000000E+00  -6.61481284167154E-05
     -2.44047968496932E-38  -6.61481284167154E-05   1.44648168730008E-15   1.08000000000000E+00   1.08000000000000E+00
      0.00000000000000E+00   0.00000000000000E+00   0.00000000000000E+00   0.00000000000000E+00   0.00000000000000E+00
      1.37947492122916E-15  -1.35000000000000E+00  -1.35000000000000E+00   0.00000000000000E+00   0.00000000000000E+00
     -8.85473671589163E-18   2.31068119615750E-38  -8.85473671589163E-18  -4.31235105097960E-15   5.00000000000000E-02
      5.00000000000000E-02   0.00000000000000E+00   0.00000000000000E+00   6.61481284167241E-05   1.29798488811818E-39
      6.61481284167241E-05   1.48639444245035E-15
      6.50000000000000E-01
      0.00000000000000E+00   0.00000000000000E+00   0.00000000000000E+00   0.00000000000000E+00  -7.23341227511046E-05
     -2.48689153868161E-38  -7.23341227511046E-05   1.42302462142267E-15   1.17000000000000E+00   1.17000000000000E+00
      0.00000000000000E+00   0.00000000000000E+00   0.00000000000000E+00   0.00000000000000E+00   0.00000000000000E+00
      1.59745824801836E-15  -1.35000000000000E+00  -1.35000000000000E+00   0.00000000000000E+00   0.00000000000000E+00
      4.61022404390723E-18   2.58139514277725E-38   4.61022404390723E-18  -4.48263656704633E-15   5.00000000000000E-02
      5.00000000000000E-02   0.00000000000000E+00   0.00000000000000E+00   7.23341227510999E-05  -9.45036040956364E-40
      7.23341227510999E-05   1.46215369760530E-15
      7.00000000000000E-01
      0.00000000000000E+00   0.00000000000000E+00   0.00000000000000E+00   0.00000000000000E+00  -7.80729215813402E-05
     -2.01930532572910E-38  -7.80729215813402E-05   1.40014120392088E-15   1.26000000000000E+00   1.26000000000000E+00
      0.00000000000000E+00   0.00000000000000E+00   0.00000000000000E+00   0.00000000000000E+00   0.00000000000000E+00
      1.81663216632053E-15  -1.35000000000000E+00  -1.35000000000000E+00   0.00000000000000E+00   0.00000000000000E+00
     -7.87743835043538E-11   1.43985485950722E-38  -7.87743835043538E-11  -4.65538065089301E-15   5.00000000000000E-02
      5.00000000000000E-02   0.00000000000000E+00   0.00000000000000E+00   7.80730003557237E-05   5.79450466221889E-39
      7.80730003557237E-05   1.43860728065160E-15
      7.50000000000000E-01
      0.00000000000000E+00   0.00000000000000E+00   0.00000000000000E+00   0.00000000000000E+00  -8.34314699570164E-05
     -2.88319279620162E-38  -8.34314699570164E-05   1.37770810460821E-15   1.35000000000000E+00   1.35000000000000E+00
      0.00000000000000E+00   0.00000000000000E+00   0.00000000000000E+00   0.00000000000000E+00   0.00000000000000E+00
      2.03673509367966E-15  -1.35000000000000E+00  -1.35000000000000E+00   0.00000000000000E+00   0.00000000000000E+00
     -3.37812390753183E-11   2.58083287075671E-38  -3.37812390753183E-11  -4.83004333564361E-15   5.00000000000000E-02
      5.00000000000000E-02   0.00000000000000E+00   0.00000000000000E+00   8.34315037382554E-05   3.02359925444905E-39
      8.34315037382554E-05   1.41560013735574E-15
      8.00000000000000E-01
      0.00000000000000E+00   0.00000000000000E+00   0.00000000000000E+00   0.00000000000000E+00  -8.84613860026901E-05
     -2.54097514303337E-38  -8.84613860026901E-05   1.35563672659642E-15   1.44000000000000E+00   1.44000000000000E+00
      0.00000000000000E+00   0.00000000000000E+00   0.00000000000000E+00   0.00000000000000E+00   0.00000000000000E+00
      2.25758197433350E-15  -1.35000000000000E+00  -1.35000000000000E+00   0.00000000000000E+00   0.00000000000000E+00
     -1.56754815740099E-11   1.91962801093318E-38  -1.56754815740099E-11  -5.00624142324335E-15   5.00000000000000E-02
      5.00000000000000E-02   0.00000000000000E+00   0.00000000000000E+00   8.84614016781717E-05   6.21347132100197E-39
      8.84614016781717E-05   1.39302272231343E-15
      8.50000000000000E-01
      0.00000000000000E+00   0.00000000000000E+00   0.00000000000000E+00   0.00000000000000E+00  -9.32038082491753E-05
     -1.97161165913622E-38  -9.32038082491753E-05   1.33386158338677E-15   1.53000000000000E+00   1.53000000000000E+00
      0.00000000000000E+00   0.00000000000000E+00   0.00000000000000E+00   0.00000000000000E+00   0.00000000000000E+00
      2.47903695967829E-15  -1.35000000000000E+00  -1.35000000000000E+00   0.00000000000000E+00   0.00000000000000E+00
     -7.76931763323623E-12   2.06331239206888E-38  -7.76931763323623E-12  -5.18369366747540E-15   5.00000000000000E-02
      5.00000000000000E-02   0.00000000000000E+00   0.00000000000000E+00   9.32038160184930E-05  -9.17007329326627E-40
      9.32038160184930E-05   1.37079512441034E-15
      9.00000000000000E-01
      0.00000000000000E+00   0.00000000000000E+00   0.00000000000000E+00   0.00000000000000E+00  -9.76917899173483E-05
     -2.85377266380893E-38  -9.76917899173483E-05   1.31233303265190E-15   1.62000000000000E+00   1.62000000000000E+00
      0.00000000000000E+00   0.00000000000000E+00   0.00000000000000E+00   0.00000000000000E+00   0.00000000000000E+00
      2.70099791499609E-15  -1.35000000000000E+00  -1.35000000000000E+00   0.00000000000000E+00   0.00000000000000E+00
     -4.07143424245514E-12   2.89508982288120E-38  -4.07143424245514E-12  -5.36218832076670E-15   5.00000000000000E-02
      5.00000000000000E-02   0.00000000000000E+00   0.00000000000000E+00   9.76917939887825E-05  -4.13171590722686E-40
      9.76917939887825E-05   1.34885737311872E-15
      9.50000000000000E-01
      0.00000000000000E+00   0.00000000000000E+00   0.00000000000000E+00   0.00000000000000E+00  -1.01952500003506E-04
     -1.85538812343199E-38  -1.01952500003506E-04   1.29101263242667E-15   1.71000000000000E+00   1.71000000000000E+00
      0.00000000000000E+00   0.00000000000000E+00   0.00000000000000E+00   0.00000000000000E+00   0.00000000000000E+00
      2.92338615105770E-15  -1.35000000000000E+00  -1.35000000000000E+00   0.00000000000000E+00   0.00000000000000E+00
     -2.23792283905950E-12   1.55434862633725E-38  -2.23792283905950E-12  -5.54156220642014E-15   5.00000000000000E-02
      5.00000000000000E-02   0.00000000000000E+00   0.00000000000000E+00   1.01952502241429E-04   3.01039497094737E-39
      1.01952502241429E-04   1.32716342293578E-15
      1.00000000000000E+00
      0.00000000000000E+00   0.00000000000000E+00   0.00000000000000E+00   0.00000000000000E+00  -1.06008618220408E-04
     -3.56586880412636E-38  -1.06008618220408E-04   1.26987006218308E-15   1.80000000000000E+00   1.80000000000000E+00
      0.00000000000000E+00   0.00000000000000E+00   0.00000000000000E+00   0.00000000000000E+00   0.00000000000000E+00
      3.14613982379240E-15  -1.35000000000000E+00  -1.35000000000000E+00   0.00000000000000E+00   0.00000000000000E+00
     -1.28200856651116E-12   2.76819681691596E-38  -1.28200856651116E-12  -5.72168709372204E-15   5.00000000000000E-02
      5.00000000000000E-02   0.00000000000000E+00   0.00000000000000E+00   1.06008619502417E-04   7.97671987210399E-39
      1.06008619502417E-04   1.30567720774656E-15
}
