DF-ISE text

Info {
  version   = 1.0
  type      = xyplot
  datasets  = [
    "time"
    "source OuterVoltage" "source InnerVoltage" "source QuasiFermiPotential" "source DisplacementCurrent" "source eCurrent"
    "source hCurrent" "source TotalCurrent" "source Charge" "gate OuterVoltage" "gate InnerVoltage"
    "gate QuasiFermiPotential" "gate DisplacementCurrent" "gate eCurrent" "gate hCurrent" "gate TotalCurrent"
    "gate Charge" "substrate OuterVoltage" "substrate InnerVoltage" "substrate QuasiFermiPotential" "substrate DisplacementCurrent"
    "substrate eCurrent" "substrate hCurrent" "substrate TotalCurrent" "substrate Charge" "drain OuterVoltage"
    "drain InnerVoltage" "drain QuasiFermiPotential" "drain DisplacementCurrent" "drain eCurrent" "drain hCurrent"
    "drain TotalCurrent" "drain Charge" ]
  functions = [
    Time
    OuterVoltage InnerVoltage QuasiFermiPotential DisplacementCurrent eCurrent
    hCurrent TotalCurrent Charge OuterVoltage InnerVoltage
    QuasiFermiPotential DisplacementCurrent eCurrent hCurrent TotalCurrent
    Charge OuterVoltage InnerVoltage QuasiFermiPotential DisplacementCurrent
    eCurrent hCurrent TotalCurrent Charge OuterVoltage
    InnerVoltage QuasiFermiPotential DisplacementCurrent eCurrent hCurrent
    TotalCurrent Charge ]
}

Data {
      5.00000000000000E-02
      0.00000000000000E+00   0.00000000000000E+00   0.00000000000000E+00   0.00000000000000E+00  -3.33174074984784E-15
     -5.40666103735244E-39  -3.33174074984784E-15   2.03462751140352E-15   9.00000000000000E-02   9.00000000000000E-02
      0.00000000000000E+00   0.00000000000000E+00   0.00000000000000E+00   0.00000000000000E+00   0.00000000000000E+00
      3.40689096292357E-15  -1.35000000000000E+00  -1.35000000000000E+00   0.00000000000000E+00   0.00000000000000E+00
      3.52200437780970E-15   7.59519538537005E-39   3.52200437780970E-15  -7.53462296287571E-15   5.00000000000000E-02
      5.00000000000000E-02   0.00000000000000E+00   0.00000000000000E+00  -1.90263627961862E-16  -2.18853434801762E-39
     -1.90263627961862E-16   2.09310448854862E-15
      1.00000000000000E-01
      0.00000000000000E+00   0.00000000000000E+00   0.00000000000000E+00   0.00000000000000E+00   5.47662558443636E-13
     -1.07368175730424E-38   5.47662558443636E-13   1.97440110934883E-15   1.80000000000000E-01   1.80000000000000E-01
      0.00000000000000E+00   0.00000000000000E+00   0.00000000000000E+00   0.00000000000000E+00   0.00000000000000E+00
      3.63264436733385E-15  -1.35000000000000E+00  -1.35000000000000E+00   0.00000000000000E+00   0.00000000000000E+00
     -8.66543910368990E-13   1.52117358706302E-38  -8.66543910368990E-13  -7.64080601520282E-15   5.00000000000000E-02
      5.00000000000000E-02   0.00000000000000E+00   0.00000000000000E+00   3.18881351925354E-13  -4.47491829758776E-39
      3.18881351925354E-13   2.03376053852014E-15
      1.50000000000000E-01
      0.00000000000000E+00   0.00000000000000E+00   0.00000000000000E+00   0.00000000000000E+00   2.92486532258427E-14
     -6.78057005755608E-39   2.92486532258427E-14   1.91320412652990E-15   2.70000000000000E-01   2.70000000000000E-01
      0.00000000000000E+00   0.00000000000000E+00   0.00000000000000E+00   0.00000000000000E+00   0.00000000000000E+00
      3.85970124196242E-15  -1.35000000000000E+00  -1.35000000000000E+00   0.00000000000000E+00   0.00000000000000E+00
     -1.38464320512393E-13   1.10000063016799E-38  -1.38464320512393E-13  -7.74587870486663E-15   5.00000000000000E-02
      5.00000000000000E-02   0.00000000000000E+00   0.00000000000000E+00   1.09215667286550E-13  -4.21943624412377E-39
      1.09215667286550E-13   1.97297333637432E-15
      2.00000000000000E-01
      0.00000000000000E+00   0.00000000000000E+00   0.00000000000000E+00   0.00000000000000E+00  -1.74338840019319E-14
     -6.70486618705467E-39  -1.74338840019319E-14   1.85253286983385E-15   3.60000000000000E-01   3.60000000000000E-01
      0.00000000000000E+00   0.00000000000000E+00   0.00000000000000E+00   0.00000000000000E+00   0.00000000000000E+00
      4.08920986503050E-15  -1.35000000000000E+00  -1.35000000000000E+00   0.00000000000000E+00   0.00000000000000E+00
      2.90366161720380E-14   9.80358754679156E-39   2.90366161720380E-14  -7.85350130191956E-15   5.00000000000000E-02
      5.00000000000000E-02   0.00000000000000E+00   0.00000000000000E+00  -1.16027321701060E-14  -3.09872135973689E-39
     -1.16027321701060E-14   1.91175856705522E-15
      2.50000000000000E-01
      0.00000000000000E+00   0.00000000000000E+00   0.00000000000000E+00   0.00000000000000E+00  -2.17927485195863E-14
     -7.27132950829463E-39  -2.17927485195863E-14   1.79514745563716E-15   4.50000000000000E-01   4.50000000000000E-01
      0.00000000000000E+00   0.00000000000000E+00   0.00000000000000E+00   0.00000000000000E+00   0.00000000000000E+00
      4.32586719485132E-15  -1.35000000000000E+00  -1.35000000000000E+00   0.00000000000000E+00   0.00000000000000E+00
      1.56763647671348E-18   9.23031634026703E-39   1.56763647671348E-18  -7.97318250263627E-15   5.00000000000000E-02
      5.00000000000000E-02   0.00000000000000E+00   0.00000000000000E+00   2.17911808831096E-14  -1.95898683197241E-39
      2.17911808831096E-14   1.85216785214779E-15
      3.00000000000000E-01
      0.00000000000000E+00   0.00000000000000E+00   0.00000000000000E+00   0.00000000000000E+00  -4.74100665918361E-13
     -7.71315712379150E-39  -4.74100665918361E-13   1.74391771168980E-15   5.40000000000000E-01   5.40000000000000E-01
      0.00000000000000E+00   0.00000000000000E+00   0.00000000000000E+00   0.00000000000000E+00   0.00000000000000E+00
      4.57674602530388E-15  -1.35000000000000E+00  -1.35000000000000E+00   0.00000000000000E+00   0.00000000000000E+00
     -2.10193844080023E-17   9.26345072593011E-39  -2.10193844080023E-17  -8.11796560205799E-15   5.00000000000000E-02
      5.00000000000000E-02   0.00000000000000E+00   0.00000000000000E+00   4.74121685302769E-13  -1.55029360213861E-39
      4.74121685302769E-13   1.79730186506430E-15
      3.50000000000000E-01
      0.00000000000000E+00   0.00000000000000E+00   0.00000000000000E+00   0.00000000000000E+00  -1.03994952960333E-11
     -5.10050209791266E-39  -1.03994952960333E-11   1.69939789872899E-15   6.30000000000000E-01   6.30000000000000E-01
      0.00000000000000E+00   0.00000000000000E+00   0.00000000000000E+00   0.00000000000000E+00   0.00000000000000E+00
      4.84552344654931E-15  -1.35000000000000E+00  -1.35000000000000E+00   0.00000000000000E+00   0.00000000000000E+00
      2.33063385183882E-18   6.52128232207538E-39   2.33063385183882E-18  -8.29407908053877E-15   5.00000000000000E-02
      5.00000000000000E-02   0.00000000000000E+00   0.00000000000000E+00   1.03994929653994E-11  -1.42078022416271E-39
      1.03994929653994E-11   1.74915773526048E-15
      4.00000000000000E-01
      0.00000000000000E+00   0.00000000000000E+00   0.00000000000000E+00   0.00000000000000E+00  -2.29781991293056E-10
     -8.24765505478743E-39  -2.29781991293056E-10   1.66035822530138E-15   7.20000000000000E-01   7.20000000000000E-01
      0.00000000000000E+00   0.00000000000000E+00   0.00000000000000E+00   0.00000000000000E+00   0.00000000000000E+00
      5.13361152971305E-15  -1.35000000000000E+00  -1.35000000000000E+00   0.00000000000000E+00   0.00000000000000E+00
     -2.43444847086835E-18   1.00959945038938E-38  -2.43444847086835E-18  -8.50120070699080E-15   5.00000000000000E-02
      5.00000000000000E-02   0.00000000000000E+00   0.00000000000000E+00   2.29781993727505E-10  -1.84833944910635E-39
      2.29781993727505E-10   1.70723095197637E-15
      4.50000000000000E-01
      0.00000000000000E+00   0.00000000000000E+00   0.00000000000000E+00   0.00000000000000E+00  -5.05764314495525E-09
     -4.22259960617699E-39  -5.05764314495525E-09   1.62555105540172E-15   8.10000000000000E-01   8.10000000000000E-01
      0.00000000000000E+00   0.00000000000000E+00   0.00000000000000E+00   0.00000000000000E+00   0.00000000000000E+00
      5.44784178145234E-15  -1.35000000000000E+00  -1.35000000000000E+00   0.00000000000000E+00   0.00000000000000E+00
     -2.88706107359961E-15   8.66046651869068E-39  -2.88706107359961E-15  -8.74356402742035E-15   5.00000000000000E-02
      5.00000000000000E-02   0.00000000000000E+00   0.00000000000000E+00   5.05764603201632E-09  -4.43786691251369E-39
      5.05764603201632E-09   1.67017119056627E-15
      5.00000000000000E-01
      0.00000000000000E+00   0.00000000000000E+00   0.00000000000000E+00   0.00000000000000E+00  -9.42678747493922E-08
     -4.90719962881190E-40  -9.42678747493922E-08   1.59387811662659E-15   9.00000000000000E-01   9.00000000000000E-01
      0.00000000000000E+00   0.00000000000000E+00   0.00000000000000E+00   0.00000000000000E+00   0.00000000000000E+00
      5.82863420122634E-15  -1.35000000000000E+00  -1.35000000000000E+00   0.00000000000000E+00   0.00000000000000E+00
     -2.87034602721686E-18   3.13744180665379E-39  -2.87034602721686E-18  -9.05934958187827E-15   5.00000000000000E-02
      5.00000000000000E-02   0.00000000000000E+00   0.00000000000000E+00   9.42678747522626E-08  -2.64672184377260E-39
      9.42678747522626E-08   1.63683726402532E-15
      5.50000000000000E-01
      0.00000000000000E+00   0.00000000000000E+00   0.00000000000000E+00   0.00000000000000E+00  -7.03484045135745E-07
     -5.29473866167696E-39  -7.03484045135745E-07   1.56440544685548E-15   9.90000000000000E-01   9.90000000000000E-01
      0.00000000000000E+00   0.00000000000000E+00   0.00000000000000E+00   0.00000000000000E+00   0.00000000000000E+00
      6.42859931813299E-15  -1.35000000000000E+00  -1.35000000000000E+00   0.00000000000000E+00   0.00000000000000E+00
     -5.21890610493773E-18   8.14138625753330E-39  -5.21890610493773E-18  -9.59923091088111E-15   5.00000000000000E-02
      5.00000000000000E-02   0.00000000000000E+00   0.00000000000000E+00   7.03484045140963E-07  -2.84664759585634E-39
      7.03484045140963E-07   1.60622614589263E-15
      6.00000000000000E-01
      0.00000000000000E+00   0.00000000000000E+00   0.00000000000000E+00   0.00000000000000E+00  -1.89128013302218E-06
     -6.55904006818704E-39  -1.89128013302218E-06   1.53631551659009E-15   1.08000000000000E+00   1.08000000000000E+00
      0.00000000000000E+00   0.00000000000000E+00   0.00000000000000E+00   0.00000000000000E+00   0.00000000000000E+00
      7.27029800540238E-15  -1.35000000000000E+00  -1.35000000000000E+00   0.00000000000000E+00   0.00000000000000E+00
     -1.24102666072574E-17   9.32630234461273E-39  -1.24102666072574E-17  -1.03840495662925E-14   5.00000000000000E-02
      5.00000000000000E-02   0.00000000000000E+00   0.00000000000000E+00   1.89128013303459E-06  -2.76726227642569E-39
      1.89128013303459E-06   1.57743604430006E-15
      6.50000000000000E-01
      0.00000000000000E+00   0.00000000000000E+00   0.00000000000000E+00   0.00000000000000E+00  -3.27236228962258E-06
     -7.15392540062128E-39  -3.27236228962258E-06   1.50912816585157E-15   1.17000000000000E+00   1.17000000000000E+00
      0.00000000000000E+00   0.00000000000000E+00   0.00000000000000E+00   0.00000000000000E+00   0.00000000000000E+00
      8.22486014425480E-15  -1.35000000000000E+00  -1.35000000000000E+00   0.00000000000000E+00   0.00000000000000E+00
     -3.07664985477595E-16   9.90389070154904E-39  -3.07664985477595E-16  -1.12837516579276E-14   5.00000000000000E-02
      5.00000000000000E-02   0.00000000000000E+00   0.00000000000000E+00   3.27236228993024E-06  -2.74996530092776E-39
      3.27236228993024E-06   1.54976334782128E-15
      7.00000000000000E-01
      0.00000000000000E+00   0.00000000000000E+00   0.00000000000000E+00   0.00000000000000E+00  -4.70375570398654E-06
     -7.00313799924763E-39  -4.70375570398654E-06   1.48258599672566E-15   1.26000000000000E+00   1.26000000000000E+00
      0.00000000000000E+00   0.00000000000000E+00   0.00000000000000E+00   0.00000000000000E+00   0.00000000000000E+00
      9.22892873061794E-15  -1.35000000000000E+00  -1.35000000000000E+00   0.00000000000000E+00   0.00000000000000E+00
     -1.19102599905872E-19   7.93870381924247E-39  -1.19102599905872E-19  -1.22343636923570E-14   5.00000000000000E-02
      5.00000000000000E-02   0.00000000000000E+00   0.00000000000000E+00   4.70375570398666E-06  -9.35565819994841E-40
      4.70375570398666E-06   1.52284896501344E-15
      7.50000000000000E-01
      0.00000000000000E+00   0.00000000000000E+00   0.00000000000000E+00   0.00000000000000E+00  -6.14470221702436E-06
     -3.36224842633114E-39  -6.14470221702436E-06   1.45653243919238E-15   1.35000000000000E+00   1.35000000000000E+00
      0.00000000000000E+00   0.00000000000000E+00   0.00000000000000E+00   0.00000000000000E+00   0.00000000000000E+00
      1.02591564310277E-14  -1.35000000000000E+00  -1.35000000000000E+00   0.00000000000000E+00   0.00000000000000E+00
      3.67523073548046E-18   4.91168898341182E-39   3.67523073548046E-18  -1.32121824630047E-14   5.00000000000000E-02
      5.00000000000000E-02   0.00000000000000E+00   0.00000000000000E+00   6.14470221702069E-06  -1.54944055708067E-39
      6.14470221702069E-06   1.49649359278463E-15
      8.00000000000000E-01
      0.00000000000000E+00   0.00000000000000E+00   0.00000000000000E+00   0.00000000000000E+00  -7.58102640058944E-06
     -7.62444995408650E-39  -7.58102640058944E-06   1.43086305899152E-15   1.44000000000000E+00   1.44000000000000E+00
      0.00000000000000E+00   0.00000000000000E+00   0.00000000000000E+00   0.00000000000000E+00   0.00000000000000E+00
      1.13053157703050E-14  -1.35000000000000E+00  -1.35000000000000E+00   0.00000000000000E+00   0.00000000000000E+00
     -7.49193051745019E-18   1.00026105227784E-38  -7.49193051745019E-18  -1.42067492488969E-14   5.00000000000000E-02
      5.00000000000000E-02   0.00000000000000E+00   0.00000000000000E+00   7.58102640059694E-06  -2.37816056869188E-39
      7.58102640059694E-06   1.47057041960030E-15
      8.50000000000000E-01
      0.00000000000000E+00   0.00000000000000E+00   0.00000000000000E+00   0.00000000000000E+00  -9.00701107453443E-06
     -8.29101874502226E-39  -9.00701107453443E-06   1.40550399098210E-15   1.53000000000000E+00   1.53000000000000E+00
      0.00000000000000E+00   0.00000000000000E+00   0.00000000000000E+00   0.00000000000000E+00   0.00000000000000E+00
      1.23621431150520E-14  -1.35000000000000E+00  -1.35000000000000E+00   0.00000000000000E+00   0.00000000000000E+00
     -5.98151277254363E-12   1.22726295526333E-38  -5.98151277254363E-12  -1.52126392879479E-14   5.00000000000000E-02
      5.00000000000000E-02   0.00000000000000E+00   0.00000000000000E+00   9.00701705604719E-06  -3.98161080761101E-39
      9.00701705604719E-06   1.44499218191376E-15
      9.00000000000000E-01
      0.00000000000000E+00   0.00000000000000E+00   0.00000000000000E+00   0.00000000000000E+00  -1.04202016447867E-05
     -6.93113622466230E-39  -1.04202016447867E-05   1.38040082845038E-15   1.62000000000000E+00   1.62000000000000E+00
      0.00000000000000E+00   0.00000000000000E+00   0.00000000000000E+00   0.00000000000000E+00   0.00000000000000E+00
      1.34265988045107E-14  -1.35000000000000E+00  -1.35000000000000E+00   0.00000000000000E+00   0.00000000000000E+00
     -3.21194507440019E-12   8.79807998972138E-39  -3.21194507440019E-12  -1.62266954260501E-14   5.00000000000000E-02
      5.00000000000000E-02   0.00000000000000E+00   0.00000000000000E+00   1.04202048567317E-05  -1.86694376505908E-39
      1.04202048567317E-05   1.41969579308904E-15
      9.50000000000000E-01
      0.00000000000000E+00   0.00000000000000E+00   0.00000000000000E+00   0.00000000000000E+00  -1.18195331132827E-05
     -8.49914677957826E-39  -1.18195331132827E-05   1.35551226156429E-15   1.71000000000000E+00   1.71000000000000E+00
      0.00000000000000E+00   0.00000000000000E+00   0.00000000000000E+00   0.00000000000000E+00   0.00000000000000E+00
      1.44967755690339E-14  -1.35000000000000E+00  -1.35000000000000E+00   0.00000000000000E+00   0.00000000000000E+00
     -1.79855983709663E-12   1.09498991605536E-38  -1.79855983709663E-12  -1.72469218501011E-14   5.00000000000000E-02
      5.00000000000000E-02   0.00000000000000E+00   0.00000000000000E+00   1.18195349118426E-05  -2.45075238097535E-39
      1.18195349118426E-05   1.39463401950286E-15
      1.00000000000000E+00
      0.00000000000000E+00   0.00000000000000E+00   0.00000000000000E+00   0.00000000000000E+00  -1.32046230415946E-05
     -1.21890514081578E-38  -1.32046230415946E-05   1.33080616197810E-15   1.80000000000000E+00   1.80000000000000E+00
      0.00000000000000E+00   0.00000000000000E+00   0.00000000000000E+00   0.00000000000000E+00   0.00000000000000E+00
      1.55714002456668E-14  -1.35000000000000E+00  -1.35000000000000E+00   0.00000000000000E+00   0.00000000000000E+00
     -1.04556490267481E-12   1.49365796485603E-38  -1.04556490267481E-12  -1.82719769417830E-14   5.00000000000000E-02
      5.00000000000000E-02   0.00000000000000E+00   0.00000000000000E+00   1.32046240871595E-05  -2.74752824040258E-39
      1.32046240871595E-05   1.36977053413816E-15
}
