DF-ISE text

Info {
  version   = 1.0
  type      = xyplot
  datasets  = [
    "time"
    "source OuterVoltage" "source InnerVoltage" "source QuasiFermiPotential" "source DisplacementCurrent" "source eCurrent"
    "source hCurrent" "source TotalCurrent" "source Charge" "gate OuterVoltage" "gate InnerVoltage"
    "gate QuasiFermiPotential" "gate DisplacementCurrent" "gate eCurrent" "gate hCurrent" "gate TotalCurrent"
    "gate Charge" "substrate OuterVoltage" "substrate InnerVoltage" "substrate QuasiFermiPotential" "substrate DisplacementCurrent"
    "substrate eCurrent" "substrate hCurrent" "substrate TotalCurrent" "substrate Charge" "drain OuterVoltage"
    "drain InnerVoltage" "drain QuasiFermiPotential" "drain DisplacementCurrent" "drain eCurrent" "drain hCurrent"
    "drain TotalCurrent" "drain Charge" ]
  functions = [
    Time
    OuterVoltage InnerVoltage QuasiFermiPotential DisplacementCurrent eCurrent
    hCurrent TotalCurrent Charge OuterVoltage InnerVoltage
    QuasiFermiPotential DisplacementCurrent eCurrent hCurrent TotalCurrent
    Charge OuterVoltage InnerVoltage QuasiFermiPotential DisplacementCurrent
    eCurrent hCurrent TotalCurrent Charge OuterVoltage
    InnerVoltage QuasiFermiPotential DisplacementCurrent eCurrent hCurrent
    TotalCurrent Charge ]
}

Data {
      5.00000000000000E-02
      0.00000000000000E+00   0.00000000000000E+00   0.00000000000000E+00   0.00000000000000E+00  -3.24782685139520E-15
     -1.95064237181097E-34  -3.24782685139520E-15   1.79361739957213E-15   9.00000000000000E-02   9.00000000000000E-02
      0.00000000000000E+00   0.00000000000000E+00   0.00000000000000E+00   0.00000000000000E+00   0.00000000000000E+00
      2.83977754309082E-15  -9.00000000000000E-01  -9.00000000000000E-01   0.00000000000000E+00   0.00000000000000E+00
      3.42087960757488E-15   2.46723018582496E-34   3.42087960757488E-15  -6.48742808844094E-15   5.00000000000000E-02
      5.00000000000000E-02   0.00000000000000E+00   0.00000000000000E+00  -1.73052756179677E-16  -5.16587814013989E-35
     -1.73052756179677E-16   1.85403314577800E-15
      1.00000000000000E-01
      0.00000000000000E+00   0.00000000000000E+00   0.00000000000000E+00   0.00000000000000E+00   5.45126236005219E-13
     -1.77520620458605E-34   5.45126236005219E-13   1.73346285654154E-15   1.80000000000000E-01   1.80000000000000E-01
      0.00000000000000E+00   0.00000000000000E+00   0.00000000000000E+00   0.00000000000000E+00   0.00000000000000E+00
      3.07848919559680E-15  -9.00000000000000E-01  -9.00000000000000E-01   0.00000000000000E+00   0.00000000000000E+00
     -8.63441816096531E-13   2.44769213901955E-34  -8.63441816096531E-13  -6.60671715120465E-15   5.00000000000000E-02
      5.00000000000000E-02   0.00000000000000E+00   0.00000000000000E+00   3.18315580091312E-13  -6.72485934433502E-35
      3.18315580091312E-13   1.79476509906631E-15
      1.50000000000000E-01
      0.00000000000000E+00   0.00000000000000E+00   0.00000000000000E+00   0.00000000000000E+00  -3.30734593107591E-14
     -1.69884415808870E-34  -3.30734593107591E-14   1.67226871792959E-15   2.70000000000000E-01   2.70000000000000E-01
      0.00000000000000E+00   0.00000000000000E+00   0.00000000000000E+00   0.00000000000000E+00   0.00000000000000E+00
      3.31807316900939E-15  -9.00000000000000E-01  -9.00000000000000E-01   0.00000000000000E+00   0.00000000000000E+00
      1.16627480992187E-13   2.03917129946153E-34   1.16627480992187E-13  -6.72437483328216E-15   5.00000000000000E-02
      5.00000000000000E-02   0.00000000000000E+00   0.00000000000000E+00  -8.35540216814282E-14  -3.40327141372836E-35
     -8.35540216814282E-14   1.73403294634318E-15
      2.00000000000000E-01
      0.00000000000000E+00   0.00000000000000E+00   0.00000000000000E+00   0.00000000000000E+00  -8.23296745481241E-15
     -9.56505620351506E-35  -8.23296745481241E-15   1.61138014841274E-15   3.60000000000000E-01   3.60000000000000E-01
      0.00000000000000E+00   0.00000000000000E+00   0.00000000000000E+00   0.00000000000000E+00   0.00000000000000E+00
      3.56020703422586E-15  -9.00000000000000E-01  -9.00000000000000E-01   0.00000000000000E+00   0.00000000000000E+00
     -3.96357073558504E-16   2.00054152705033E-34  -3.96357073558504E-16  -6.84434194412766E-15   5.00000000000000E-02
      5.00000000000000E-02   0.00000000000000E+00   0.00000000000000E+00   8.62932452837091E-15  -1.04403590669882E-34
      8.62932452837091E-15   1.67275476148905E-15
      2.50000000000000E-01
      0.00000000000000E+00   0.00000000000000E+00   0.00000000000000E+00   0.00000000000000E+00  -1.81741724748278E-13
     -2.60434363939698E-34  -1.81741724748278E-13   1.55359074870442E-15   4.50000000000000E-01   4.50000000000000E-01
      0.00000000000000E+00   0.00000000000000E+00   0.00000000000000E+00   0.00000000000000E+00   0.00000000000000E+00
      3.80990252694894E-15  -9.00000000000000E-01  -9.00000000000000E-01   0.00000000000000E+00   0.00000000000000E+00
      6.14777149003985E-18   3.15621368796504E-34   6.14777149003985E-18  -6.97633627169980E-15   5.00000000000000E-02
      5.00000000000000E-02   0.00000000000000E+00   0.00000000000000E+00   1.81735576976788E-13  -5.51870048568063E-35
      1.81735576976788E-13   1.61284299604643E-15
      3.00000000000000E-01
      0.00000000000000E+00   0.00000000000000E+00   0.00000000000000E+00   0.00000000000000E+00  -3.77432237286655E-12
     -1.51181351532100E-34  -3.77432237286655E-12   1.50216271815666E-15   5.40000000000000E-01   5.40000000000000E-01
      0.00000000000000E+00   0.00000000000000E+00   0.00000000000000E+00   0.00000000000000E+00   0.00000000000000E+00
      4.07404629715607E-15  -9.00000000000000E-01  -9.00000000000000E-01   0.00000000000000E+00   0.00000000000000E+00
     -2.10173723483277E-15   1.95927706528051E-34  -2.10173723483277E-15  -7.13383053113564E-15   5.00000000000000E-02
      5.00000000000000E-02   0.00000000000000E+00   0.00000000000000E+00   3.77642411010138E-12  -4.47463549959513E-35
      3.77642411010138E-12   1.55762151582291E-15
      3.50000000000000E-01
      0.00000000000000E+00   0.00000000000000E+00   0.00000000000000E+00   0.00000000000000E+00  -7.91753970117258E-11
     -1.03101444800161E-34  -7.91753970117258E-11   1.45774157554844E-15   6.30000000000000E-01   6.30000000000000E-01
      0.00000000000000E+00   0.00000000000000E+00   0.00000000000000E+00   0.00000000000000E+00   0.00000000000000E+00
      4.35657945082824E-15  -9.00000000000000E-01  -9.00000000000000E-01   0.00000000000000E+00   0.00000000000000E+00
     -3.52354542571650E-18   1.70742081199592E-34  -3.52354542571650E-18  -7.32372671131507E-15   5.00000000000000E-02
      5.00000000000000E-02   0.00000000000000E+00   0.00000000000000E+00   7.91754005352712E-11  -6.76406363994311E-35
      7.91754005352712E-11   1.50940568493838E-15
      4.00000000000000E-01
      0.00000000000000E+00   0.00000000000000E+00   0.00000000000000E+00   0.00000000000000E+00  -1.66785202557408E-09
     -1.38214460767191E-34  -1.66785202557408E-09   1.41907102842766E-15   7.20000000000000E-01   7.20000000000000E-01
      0.00000000000000E+00   0.00000000000000E+00   0.00000000000000E+00   0.00000000000000E+00   0.00000000000000E+00
      4.66104195089362E-15  -9.00000000000000E-01  -9.00000000000000E-01   0.00000000000000E+00   0.00000000000000E+00
     -8.72064568982032E-18   1.85235926288264E-34  -8.72064568982032E-18  -7.54779731740718E-15   5.00000000000000E-02
      5.00000000000000E-02   0.00000000000000E+00   0.00000000000000E+00   1.66785203429472E-09  -4.70214655210730E-35
      1.66785203429472E-09   1.46768433808588E-15
      4.50000000000000E-01
      0.00000000000000E+00   0.00000000000000E+00   0.00000000000000E+00   0.00000000000000E+00  -3.32406870716721E-08
     -1.86513653279235E-34  -3.32406870716721E-08   1.38477950400912E-15   8.10000000000000E-01   8.10000000000000E-01
      0.00000000000000E+00   0.00000000000000E+00   0.00000000000000E+00   0.00000000000000E+00   0.00000000000000E+00
      5.00621769911578E-15  -9.00000000000000E-01  -9.00000000000000E-01   0.00000000000000E+00   0.00000000000000E+00
     -4.30192068610632E-18   2.18199614915305E-34  -4.30192068610632E-18  -7.82206612526404E-15   5.00000000000000E-02
      5.00000000000000E-02   0.00000000000000E+00   0.00000000000000E+00   3.32406870759740E-08  -3.16859616360699E-35
      3.32406870759740E-08   1.43106892213913E-15
      5.00000000000000E-01
      0.00000000000000E+00   0.00000000000000E+00   0.00000000000000E+00   0.00000000000000E+00  -3.78928883566148E-07
     -1.45655259386879E-34  -3.78928883566148E-07   1.35356986027689E-15   9.00000000000000E-01   9.00000000000000E-01
      0.00000000000000E+00   0.00000000000000E+00   0.00000000000000E+00   0.00000000000000E+00   0.00000000000000E+00
      5.49998577526859E-15  -9.00000000000000E-01  -9.00000000000000E-01   0.00000000000000E+00   0.00000000000000E+00
     -2.93361291834481E-18   2.09401625976684E-34  -2.93361291834481E-18  -8.25179797918618E-15   5.00000000000000E-02
      5.00000000000000E-02   0.00000000000000E+00   0.00000000000000E+00   3.78928883569081E-07  -6.37463665898043E-35
      3.78928883569081E-07   1.39824234364069E-15
      5.50000000000000E-01
      0.00000000000000E+00   0.00000000000000E+00   0.00000000000000E+00   0.00000000000000E+00  -1.40240775925608E-06
     -1.59208893869675E-34  -1.40240775925608E-06   1.32433437201375E-15   9.90000000000000E-01   9.90000000000000E-01
      0.00000000000000E+00   0.00000000000000E+00   0.00000000000000E+00   0.00000000000000E+00   0.00000000000000E+00
      6.25898746546553E-15  -9.00000000000000E-01  -9.00000000000000E-01   0.00000000000000E+00   0.00000000000000E+00
     -7.73938124675070E-16   2.30236727140811E-34  -7.73938124675070E-16  -8.95132318939299E-15   5.00000000000000E-02
      5.00000000000000E-02   0.00000000000000E+00   0.00000000000000E+00   1.40240776003002E-06  -7.10278332711361E-35
      1.40240776003002E-06   1.36800135191371E-15
      6.00000000000000E-01
      0.00000000000000E+00   0.00000000000000E+00   0.00000000000000E+00   0.00000000000000E+00  -2.75669763949206E-06
     -1.26342977418604E-34  -2.75669763949206E-06   1.29633681485920E-15   1.08000000000000E+00   1.08000000000000E+00
      0.00000000000000E+00   0.00000000000000E+00   0.00000000000000E+00   0.00000000000000E+00   0.00000000000000E+00
      7.17794048030037E-15  -9.00000000000000E-01  -9.00000000000000E-01   0.00000000000000E+00   0.00000000000000E+00
     -5.66757236131768E-18   2.02588366140414E-34  -5.66757236131768E-18  -9.81362570258998E-15   5.00000000000000E-02
      5.00000000000000E-02   0.00000000000000E+00   0.00000000000000E+00   2.75669763949773E-06  -7.62453887218107E-35
      2.75669763949773E-06   1.33934840743040E-15
      6.50000000000000E-01
      0.00000000000000E+00   0.00000000000000E+00   0.00000000000000E+00   0.00000000000000E+00  -4.20259327500143E-06
     -1.85058298954603E-34  -4.20259327500143E-06   1.26918787644192E-15   1.17000000000000E+00   1.17000000000000E+00
      0.00000000000000E+00   0.00000000000000E+00   0.00000000000000E+00   0.00000000000000E+00   0.00000000000000E+00
      8.16483269097772E-15  -9.00000000000000E-01  -9.00000000000000E-01   0.00000000000000E+00   0.00000000000000E+00
     -2.66387062221315E-17   2.64952602695216E-34  -2.66387062221315E-17  -1.07457398367489E-14   5.00000000000000E-02
      5.00000000000000E-02   0.00000000000000E+00   0.00000000000000E+00   4.20259327502807E-06  -7.98943037406132E-35
      4.20259327502807E-06   1.31171926932926E-15
      7.00000000000000E-01
      0.00000000000000E+00   0.00000000000000E+00   0.00000000000000E+00   0.00000000000000E+00  -5.67153794134521E-06
     -1.59033204326153E-34  -5.67153794134521E-06   1.24266213604799E-15   1.26000000000000E+00   1.26000000000000E+00
      0.00000000000000E+00   0.00000000000000E+00   0.00000000000000E+00   0.00000000000000E+00   0.00000000000000E+00
      9.18522266784134E-15  -9.00000000000000E-01  -9.00000000000000E-01   0.00000000000000E+00   0.00000000000000E+00
      8.77481467408143E-18   2.28263517339324E-34   8.77481467408143E-18  -1.17127014256084E-14   5.00000000000000E-02
      5.00000000000000E-02   0.00000000000000E+00   0.00000000000000E+00   5.67153794133644E-06  -6.92303130131716E-35
      5.67153794133644E-06   1.28481662171911E-15
      7.50000000000000E-01
      0.00000000000000E+00   0.00000000000000E+00   0.00000000000000E+00   0.00000000000000E+00  -7.14108651952194E-06
     -1.55062127485501E-34  -7.14108651952194E-06   1.21661487469936E-15   1.35000000000000E+00   1.35000000000000E+00
      0.00000000000000E+00   0.00000000000000E+00   0.00000000000000E+00   0.00000000000000E+00   0.00000000000000E+00
      1.02250431299046E-14  -9.00000000000000E-01  -9.00000000000000E-01   0.00000000000000E+00   0.00000000000000E+00
     -3.39292097978704E-18   2.31879222550916E-34  -3.39292097978704E-18  -1.27001182539423E-14   5.00000000000000E-02
      5.00000000000000E-02   0.00000000000000E+00   0.00000000000000E+00   7.14108651952534E-06  -7.68170950654152E-35
      7.14108651952534E-06   1.25846024933833E-15
      8.00000000000000E-01
      0.00000000000000E+00   0.00000000000000E+00   0.00000000000000E+00   0.00000000000000E+00  -8.60246732383688E-06
     -1.98597293776343E-34  -8.60246732383688E-06   1.19094673016612E-15   1.44000000000000E+00   1.44000000000000E+00
      0.00000000000000E+00   0.00000000000000E+00   0.00000000000000E+00   0.00000000000000E+00   0.00000000000000E+00
      1.12774487364341E-14  -9.00000000000000E-01  -9.00000000000000E-01   0.00000000000000E+00   0.00000000000000E+00
     -3.04257919915617E-18   2.75630334983430E-34  -3.04257919915617E-18  -1.37009258945489E-14   5.00000000000000E-02
      5.00000000000000E-02   0.00000000000000E+00   0.00000000000000E+00   8.60246732383992E-06  -7.70330412070866E-35
      8.60246732383992E-06   1.23253042794878E-15
      8.50000000000000E-01
      0.00000000000000E+00   0.00000000000000E+00   0.00000000000000E+00   0.00000000000000E+00  -1.00518733439831E-05
     -2.09236488225925E-34  -1.00518733439831E-05   1.16558626608319E-15   1.53000000000000E+00   1.53000000000000E+00
      0.00000000000000E+00   0.00000000000000E+00   0.00000000000000E+00   0.00000000000000E+00   0.00000000000000E+00
      1.23386428145701E-14  -9.00000000000000E-01  -9.00000000000000E-01   0.00000000000000E+00   0.00000000000000E+00
     -6.12915592909046E-12   2.77628160122024E-34  -6.12915592909046E-12  -1.47111720418590E-14   5.00000000000000E-02
      5.00000000000000E-02   0.00000000000000E+00   0.00000000000000E+00   1.00518794731390E-05  -6.83916718960987E-35
      1.00518794731390E-05   1.20694296120566E-15
      9.00000000000000E-01
      0.00000000000000E+00   0.00000000000000E+00   0.00000000000000E+00   0.00000000000000E+00  -1.14876145088902E-05
     -1.48203040311969E-34  -1.14876145088902E-05   1.14048033448388E-15   1.62000000000000E+00   1.62000000000000E+00
      0.00000000000000E+00   0.00000000000000E+00   0.00000000000000E+00   0.00000000000000E+00   0.00000000000000E+00
      1.34063127758283E-14  -9.00000000000000E-01  -9.00000000000000E-01   0.00000000000000E+00   0.00000000000000E+00
     -3.27883618838808E-12   1.87900912785728E-34  -3.27883618838808E-12  -1.57284293394125E-14   5.00000000000000E-02
      5.00000000000000E-02   0.00000000000000E+00   0.00000000000000E+00   1.14876177877264E-05  -3.96978724737595E-35
      1.14876177877264E-05   1.18163622910035E-15
      9.50000000000000E-01
      0.00000000000000E+00   0.00000000000000E+00   0.00000000000000E+00   0.00000000000000E+00  -1.29089561970114E-05
     -1.07430377381146E-34  -1.29089561970114E-05   1.11558831453673E-15   1.71000000000000E+00   1.71000000000000E+00
      0.00000000000000E+00   0.00000000000000E+00   0.00000000000000E+00   0.00000000000000E+00   0.00000000000000E+00
      1.44789493630155E-14  -9.00000000000000E-01  -9.00000000000000E-01   0.00000000000000E+00   0.00000000000000E+00
     -1.83148686701878E-12   1.57440758560692E-34  -1.83148686701878E-12  -1.67511014220462E-14   5.00000000000000E-02
      5.00000000000000E-02   0.00000000000000E+00   0.00000000000000E+00   1.29089580284982E-05  -5.00103811795461E-35
      1.29089580284982E-05   1.15656374449404E-15
      1.00000000000000E+00
      0.00000000000000E+00   0.00000000000000E+00   0.00000000000000E+00   0.00000000000000E+00  -1.43156661518577E-05
     -1.41910772480503E-34  -1.43156661518577E-05   1.09087846904465E-15   1.80000000000000E+00   1.80000000000000E+00
      0.00000000000000E+00   0.00000000000000E+00   0.00000000000000E+00   0.00000000000000E+00   0.00000000000000E+00
      1.55555144380385E-14  -9.00000000000000E-01  -9.00000000000000E-01   0.00000000000000E+00   0.00000000000000E+00
     -1.06288565024579E-12   2.03558198143130E-34  -1.06288565024579E-12  -1.77780824806379E-14   5.00000000000000E-02
      5.00000000000000E-02   0.00000000000000E+00   0.00000000000000E+00   1.43156672147433E-05  -6.16474256626270E-35
      1.43156672147433E-05   1.13168957355479E-15
}
