DF-ISE text

Info {
  version   = 1.0
  type      = xyplot
  datasets  = [
    "time"
    "source OuterVoltage" "source InnerVoltage" "source QuasiFermiPotential" "source DisplacementCurrent" "source eCurrent"
    "source hCurrent" "source TotalCurrent" "source Charge" "gate OuterVoltage" "gate InnerVoltage"
    "gate QuasiFermiPotential" "gate DisplacementCurrent" "gate eCurrent" "gate hCurrent" "gate TotalCurrent"
    "gate Charge" "substrate OuterVoltage" "substrate InnerVoltage" "substrate QuasiFermiPotential" "substrate DisplacementCurrent"
    "substrate eCurrent" "substrate hCurrent" "substrate TotalCurrent" "substrate Charge" "drain OuterVoltage"
    "drain InnerVoltage" "drain QuasiFermiPotential" "drain DisplacementCurrent" "drain eCurrent" "drain hCurrent"
    "drain TotalCurrent" "drain Charge" ]
  functions = [
    Time
    OuterVoltage InnerVoltage QuasiFermiPotential DisplacementCurrent eCurrent
    hCurrent TotalCurrent Charge OuterVoltage InnerVoltage
    QuasiFermiPotential DisplacementCurrent eCurrent hCurrent TotalCurrent
    Charge OuterVoltage InnerVoltage QuasiFermiPotential DisplacementCurrent
    eCurrent hCurrent TotalCurrent Charge OuterVoltage
    InnerVoltage QuasiFermiPotential DisplacementCurrent eCurrent hCurrent
    TotalCurrent Charge ]
}

Data {
      5.00000000000000E-02
      0.00000000000000E+00   0.00000000000000E+00   0.00000000000000E+00   0.00000000000000E+00  -4.06810712927680E-05
     -3.92779592292188E-34  -4.06810712927680E-05   1.60029389934998E-15   9.00000000000000E-02   9.00000000000000E-02
      0.00000000000000E+00   0.00000000000000E+00   0.00000000000000E+00   0.00000000000000E+00   0.00000000000000E+00
     -1.42420000349566E-15  -9.00000000000000E-01  -9.00000000000000E-01   0.00000000000000E+00   0.00000000000000E+00
     -1.86554098309584E-14   3.92779592292188E-34  -1.86554098309584E-14  -3.69013642642823E-15   1.80000000000000E+00
      1.80000000000000E+00   0.00000000000000E+00   0.00000000000000E+00   4.06810713114234E-05   1.01400745944457E-49
      4.06810713114234E-05   3.51404253057391E-15
      1.00000000000000E-01
      0.00000000000000E+00   0.00000000000000E+00   0.00000000000000E+00   0.00000000000000E+00  -5.43077181031742E-05
     -5.17175239572287E-34  -5.43077181031742E-05   1.54037987757200E-15   1.80000000000000E-01   1.80000000000000E-01
      0.00000000000000E+00   0.00000000000000E+00   0.00000000000000E+00   0.00000000000000E+00   0.00000000000000E+00
     -1.31822440256062E-15  -9.00000000000000E-01  -9.00000000000000E-01   0.00000000000000E+00   0.00000000000000E+00
      8.08305741078208E-15   5.17175239572286E-34   8.08305741078208E-15  -3.69387040030122E-15   1.80000000000000E+00
      1.80000000000000E+00   0.00000000000000E+00   0.00000000000000E+00   5.43077180950912E-05   1.07291322141727E-50
      5.43077180950912E-05   3.47171492528984E-15
      1.50000000000000E-01
      0.00000000000000E+00   0.00000000000000E+00   0.00000000000000E+00   0.00000000000000E+00  -7.07156791212276E-05
     -3.90628655301420E-34  -7.07156791212276E-05   1.47983499386412E-15   2.70000000000000E-01   2.70000000000000E-01
      0.00000000000000E+00   0.00000000000000E+00   0.00000000000000E+00   0.00000000000000E+00   0.00000000000000E+00
     -1.20927928650041E-15  -9.00000000000000E-01  -9.00000000000000E-01   0.00000000000000E+00   0.00000000000000E+00
      1.20496452502814E-14   3.90628655301420E-34   1.20496452502814E-14  -3.69892999124235E-15   1.80000000000000E+00
      1.80000000000000E+00   0.00000000000000E+00   0.00000000000000E+00   7.07156791091779E-05   1.23803161938422E-50
      7.07156791091779E-05   3.42837428387864E-15
      2.00000000000000E-01
      0.00000000000000E+00   0.00000000000000E+00   0.00000000000000E+00   0.00000000000000E+00  -9.05691125289413E-05
     -4.13428746561029E-34  -9.05691125289413E-05   1.42018965864334E-15   3.60000000000000E-01   3.60000000000000E-01
      0.00000000000000E+00   0.00000000000000E+00   0.00000000000000E+00   0.00000000000000E+00   0.00000000000000E+00
     -1.09607617589350E-15  -9.00000000000000E-01  -9.00000000000000E-01   0.00000000000000E+00   0.00000000000000E+00
      1.14965065615161E-13   4.13428746561028E-34   1.14965065615161E-13  -3.70779130637187E-15   1.80000000000000E+00
      1.80000000000000E+00   0.00000000000000E+00   0.00000000000000E+00   9.05691124139762E-05  -4.56902532510023E-52
      9.05691124139762E-05   3.38367782362202E-15
      2.50000000000000E-01
      0.00000000000000E+00   0.00000000000000E+00   0.00000000000000E+00   0.00000000000000E+00  -1.14943513027505E-04
     -4.21803757674962E-34  -1.14943513027505E-04   1.36492835960169E-15   4.50000000000000E-01   4.50000000000000E-01
      0.00000000000000E+00   0.00000000000000E+00   0.00000000000000E+00   0.00000000000000E+00   0.00000000000000E+00
     -9.75747369161299E-16  -9.00000000000000E-01  -9.00000000000000E-01   0.00000000000000E+00   0.00000000000000E+00
      2.21737974590027E-18   4.21803757674962E-34   2.21737974590027E-18  -3.72622843997758E-15   1.80000000000000E+00
      1.80000000000000E+00   0.00000000000000E+00   0.00000000000000E+00   1.14943513027503E-04   6.70563001629581E-51
      1.14943513027503E-04   3.33704744953719E-15
      3.00000000000000E-01
      0.00000000000000E+00   0.00000000000000E+00   0.00000000000000E+00   0.00000000000000E+00  -1.45594069711415E-04
     -5.63106524772580E-34  -1.45594069711415E-04   1.31790568366011E-15   5.40000000000000E-01   5.40000000000000E-01
      0.00000000000000E+00   0.00000000000000E+00   0.00000000000000E+00   0.00000000000000E+00   0.00000000000000E+00
     -8.44872344818175E-16  -9.00000000000000E-01  -9.00000000000000E-01   0.00000000000000E+00   0.00000000000000E+00
     -5.31290661708656E-18   5.63106524772580E-34  -5.31290661708656E-18  -3.76060356505553E-15   1.80000000000000E+00
      1.80000000000000E+00   0.00000000000000E+00   0.00000000000000E+00   1.45594069711420E-04   4.92031213632335E-51
      1.45594069711420E-04   3.28757022621360E-15
      3.50000000000000E-01
      0.00000000000000E+00   0.00000000000000E+00   0.00000000000000E+00   0.00000000000000E+00  -1.82784500983854E-04
     -4.71586430578516E-34  -1.82784500983854E-04   1.27930240907471E-15   6.30000000000000E-01   6.30000000000000E-01
      0.00000000000000E+00   0.00000000000000E+00   0.00000000000000E+00   0.00000000000000E+00   0.00000000000000E+00
     -7.03061851878128E-16  -9.00000000000000E-01  -9.00000000000000E-01   0.00000000000000E+00   0.00000000000000E+00
     -3.38017855153041E-18   4.71586430578516E-34  -3.38017855153041E-18  -3.81110152491306E-15   1.80000000000000E+00
      1.80000000000000E+00   0.00000000000000E+00   0.00000000000000E+00   1.82784500983857E-04   8.86402927412144E-51
      1.82784500983857E-04   3.23486096771647E-15
      4.00000000000000E-01
      0.00000000000000E+00   0.00000000000000E+00   0.00000000000000E+00   0.00000000000000E+00  -2.26315955205019E-04
     -5.16870358880230E-34  -2.26315955205019E-04   1.24679335225302E-15   7.20000000000000E-01   7.20000000000000E-01
      0.00000000000000E+00   0.00000000000000E+00   0.00000000000000E+00   0.00000000000000E+00   0.00000000000000E+00
     -5.52145405276415E-16  -9.00000000000000E-01  -9.00000000000000E-01   0.00000000000000E+00   0.00000000000000E+00
      1.82304605860587E-18   5.16870358880229E-34   1.82304605860587E-18  -3.87383527198259E-15   1.80000000000000E+00
      1.80000000000000E+00   0.00000000000000E+00   0.00000000000000E+00   2.26315955205017E-04   1.94418611272591E-51
      2.26315955205017E-04   3.17918732500599E-15
      4.50000000000000E-01
      0.00000000000000E+00   0.00000000000000E+00   0.00000000000000E+00   0.00000000000000E+00  -2.75010455255852E-04
     -4.01605369589993E-34  -2.75010455255852E-04   1.21809421633312E-15   8.10000000000000E-01   8.10000000000000E-01
      0.00000000000000E+00   0.00000000000000E+00   0.00000000000000E+00   0.00000000000000E+00   0.00000000000000E+00
     -3.94239836416438E-16  -9.00000000000000E-01  -9.00000000000000E-01   0.00000000000000E+00   0.00000000000000E+00
     -2.11555849060538E-13   4.01605369589993E-34  -2.11555849060538E-13  -3.94542570662491E-15   1.80000000000000E+00
      1.80000000000000E+00   0.00000000000000E+00   0.00000000000000E+00   2.75010455467407E-04   4.99667156111934E-51
      2.75010455467407E-04   3.12157132670822E-15
      5.00000000000000E-01
      0.00000000000000E+00   0.00000000000000E+00   0.00000000000000E+00   0.00000000000000E+00  -3.27673021308990E-04
     -4.83045944431730E-34  -3.27673021308990E-04   1.19181308214500E-15   9.00000000000000E-01   9.00000000000000E-01
      0.00000000000000E+00   0.00000000000000E+00   0.00000000000000E+00   0.00000000000000E+00   0.00000000000000E+00
     -2.30900963631170E-16  -9.00000000000000E-01  -9.00000000000000E-01   0.00000000000000E+00   0.00000000000000E+00
     -5.76677564487294E-14   4.83045944431731E-34  -5.76677564487294E-14  -4.02398487257561E-15   1.80000000000000E+00
      1.80000000000000E+00   0.00000000000000E+00   0.00000000000000E+00   3.27673021366657E-04   5.57896632591829E-51
      3.27673021366657E-04   3.06307275406177E-15
      5.50000000000000E-01
      0.00000000000000E+00   0.00000000000000E+00   0.00000000000000E+00   0.00000000000000E+00  -3.83532236156867E-04
     -3.18046896708117E-34  -3.83532236156867E-04   1.16714387112841E-15   9.90000000000000E-01   9.90000000000000E-01
      0.00000000000000E+00   0.00000000000000E+00   0.00000000000000E+00   0.00000000000000E+00   0.00000000000000E+00
     -6.32678680611938E-17  -9.00000000000000E-01  -9.00000000000000E-01   0.00000000000000E+00   0.00000000000000E+00
     -1.39808364737760E-14   3.18046896708117E-34  -1.39808364737760E-14  -4.10830222309870E-15   1.80000000000000E+00
      1.80000000000000E+00   0.00000000000000E+00   0.00000000000000E+00   3.83532236170848E-04   6.21881549066201E-51
      3.83532236170848E-04   3.00442622003148E-15
      6.00000000000000E-01
      0.00000000000000E+00   0.00000000000000E+00   0.00000000000000E+00   0.00000000000000E+00  -4.41977090322065E-04
     -5.54069112516998E-34  -4.41977090322065E-04   1.14360869476587E-15   1.08000000000000E+00   1.08000000000000E+00
      0.00000000000000E+00   0.00000000000000E+00   0.00000000000000E+00   0.00000000000000E+00   0.00000000000000E+00
      1.07830772514188E-16  -9.00000000000000E-01  -9.00000000000000E-01   0.00000000000000E+00   0.00000000000000E+00
     -4.02591683751383E-15   5.54069112516998E-34  -4.02591683751383E-15  -4.19759633157706E-15   1.80000000000000E+00
      1.80000000000000E+00   0.00000000000000E+00   0.00000000000000E+00   4.41977090326091E-04   8.36364611105567E-51
      4.41977090326091E-04   2.94615686429700E-15
      6.50000000000000E-01
      0.00000000000000E+00   0.00000000000000E+00   0.00000000000000E+00   0.00000000000000E+00  -5.02666660314064E-04
     -5.24606638870619E-34  -5.02666660314064E-04   1.12089989246017E-15   1.17000000000000E+00   1.17000000000000E+00
      0.00000000000000E+00   0.00000000000000E+00   0.00000000000000E+00   0.00000000000000E+00   0.00000000000000E+00
      2.81721736916661E-16  -9.00000000000000E-01  -9.00000000000000E-01   0.00000000000000E+00   0.00000000000000E+00
     -2.23852525066309E-15   5.24606638870619E-34  -2.23852525066309E-15  -4.29111890335942E-15   1.80000000000000E+00
      1.80000000000000E+00   0.00000000000000E+00   0.00000000000000E+00   5.02666660316302E-04   8.86992712656507E-52
      5.02666660316302E-04   2.88849727398259E-15
      7.00000000000000E-01
      0.00000000000000E+00   0.00000000000000E+00   0.00000000000000E+00   0.00000000000000E+00  -5.65080538411549E-04
     -4.40893567490825E-34  -5.65080538411549E-04   1.09883989362539E-15   1.26000000000000E+00   1.26000000000000E+00
      0.00000000000000E+00   0.00000000000000E+00   0.00000000000000E+00   0.00000000000000E+00   0.00000000000000E+00
      4.58143183910112E-16  -9.00000000000000E-01  -9.00000000000000E-01   0.00000000000000E+00   0.00000000000000E+00
     -4.93887302746776E-16   4.40893567490825E-34  -4.93887302746776E-16  -4.38848224818176E-15   1.80000000000000E+00
      1.80000000000000E+00   0.00000000000000E+00   0.00000000000000E+00   5.65080538412042E-04   6.92763046222343E-51
      5.65080538412042E-04   2.83149917064626E-15
      7.50000000000000E-01
      0.00000000000000E+00   0.00000000000000E+00   0.00000000000000E+00   0.00000000000000E+00  -6.29109152424130E-04
     -4.76121453223103E-34  -6.29109152424130E-04   1.07728024982685E-15   1.35000000000000E+00   1.35000000000000E+00
      0.00000000000000E+00   0.00000000000000E+00   0.00000000000000E+00   0.00000000000000E+00   0.00000000000000E+00
      6.36706186315169E-16  -9.00000000000000E-01  -9.00000000000000E-01   0.00000000000000E+00   0.00000000000000E+00
     -7.08090202550716E-17   4.76121453223103E-34  -7.08090202550716E-17  -4.48916383315725E-15   1.80000000000000E+00
      1.80000000000000E+00   0.00000000000000E+00   0.00000000000000E+00   6.29109152424201E-04  -6.70475756993949E-52
      6.29109152424201E-04   2.77517739701523E-15
      8.00000000000000E-01
      0.00000000000000E+00   0.00000000000000E+00   0.00000000000000E+00   0.00000000000000E+00  -6.94472789045790E-04
     -5.76748778935537E-34  -6.94472789045790E-04   1.05613350102592E-15   1.44000000000000E+00   1.44000000000000E+00
      0.00000000000000E+00   0.00000000000000E+00   0.00000000000000E+00   0.00000000000000E+00   0.00000000000000E+00
      8.17337884081610E-16  -9.00000000000000E-01  -9.00000000000000E-01   0.00000000000000E+00   0.00000000000000E+00
     -2.25398290358236E-17   5.76748778935538E-34  -2.25398290358236E-17  -4.59305268158148E-15   1.80000000000000E+00
      1.80000000000000E+00   0.00000000000000E+00   0.00000000000000E+00   6.94472789045812E-04   4.21326671012067E-51
      6.94472789045812E-04   2.71958129647395E-15
      8.50000000000000E-01
      0.00000000000000E+00   0.00000000000000E+00   0.00000000000000E+00   0.00000000000000E+00  -7.60980175437262E-04
     -4.99318065955249E-34  -7.60980175437262E-04   1.03532841633247E-15   1.53000000000000E+00   1.53000000000000E+00
      0.00000000000000E+00   0.00000000000000E+00   0.00000000000000E+00   0.00000000000000E+00   0.00000000000000E+00
      9.99894350975568E-16  -9.00000000000000E-01  -9.00000000000000E-01   0.00000000000000E+00   0.00000000000000E+00
     -4.36609726674605E-17   4.99318065955249E-34  -4.36609726674605E-17  -4.70007715825848E-15   1.80000000000000E+00
      1.80000000000000E+00   0.00000000000000E+00   0.00000000000000E+00   7.60980175437306E-04   1.66984855095399E-51
      7.60980175437306E-04   2.66485439095045E-15
      9.00000000000000E-01
      0.00000000000000E+00   0.00000000000000E+00   0.00000000000000E+00   0.00000000000000E+00  -8.28587921689884E-04
     -3.94732799843793E-34  -8.28587921689884E-04   1.01479768180579E-15   1.62000000000000E+00   1.62000000000000E+00
      0.00000000000000E+00   0.00000000000000E+00   0.00000000000000E+00   0.00000000000000E+00   0.00000000000000E+00
      1.18409100080423E-15  -9.00000000000000E-01  -9.00000000000000E-01   0.00000000000000E+00   0.00000000000000E+00
     -5.21778898413587E-17   3.94732799843793E-34  -5.21778898413587E-17  -4.81001957702409E-15   1.80000000000000E+00
      1.80000000000000E+00   0.00000000000000E+00   0.00000000000000E+00   8.28587921689937E-04   1.25520762432069E-50
      8.28587921689937E-04   2.61113089441407E-15
      9.50000000000000E-01
      0.00000000000000E+00   0.00000000000000E+00   0.00000000000000E+00   0.00000000000000E+00  -8.97214502535429E-04
     -3.83658484066460E-34  -8.97214502535429E-04   9.94493588162631E-16   1.71000000000000E+00   1.71000000000000E+00
      0.00000000000000E+00   0.00000000000000E+00   0.00000000000000E+00   0.00000000000000E+00   0.00000000000000E+00
      1.36981946883742E-15  -9.00000000000000E-01  -9.00000000000000E-01   0.00000000000000E+00   0.00000000000000E+00
     -1.24380629363817E-17   3.83658484066460E-34  -1.24380629363817E-17  -4.92278587160239E-15   1.80000000000000E+00
      1.80000000000000E+00   0.00000000000000E+00   0.00000000000000E+00   8.97214502535442E-04   3.44196628317762E-51
      8.97214502535442E-04   2.55847281460233E-15
      1.00000000000000E+00
      0.00000000000000E+00   0.00000000000000E+00   0.00000000000000E+00   0.00000000000000E+00  -9.66791570464247E-04
     -3.01104762065718E-34  -9.66791570464247E-04   9.74380062958420E-16   1.80000000000000E+00   1.80000000000000E+00
      0.00000000000000E+00   0.00000000000000E+00   0.00000000000000E+00   0.00000000000000E+00   0.00000000000000E+00
      1.55716753983612E-15  -9.00000000000000E-01  -9.00000000000000E-01   0.00000000000000E+00   0.00000000000000E+00
      3.68557796132147E-15   3.01104762065718E-34   3.68557796132147E-15  -5.03863239080491E-15   1.80000000000000E+00
      1.80000000000000E+00   0.00000000000000E+00   0.00000000000000E+00   9.66791570460561E-04   6.20862778311373E-51
      9.66791570460561E-04   2.50708478801037E-15
}
