DF-ISE text

Info {
  version   = 1.0
  type      = xyplot
  datasets  = [
    "time"
    "source OuterVoltage" "source InnerVoltage" "source QuasiFermiPotential" "source DisplacementCurrent" "source eCurrent"
    "source hCurrent" "source TotalCurrent" "source Charge" "gate OuterVoltage" "gate InnerVoltage"
    "gate QuasiFermiPotential" "gate DisplacementCurrent" "gate eCurrent" "gate hCurrent" "gate TotalCurrent"
    "gate Charge" "substrate OuterVoltage" "substrate InnerVoltage" "substrate QuasiFermiPotential" "substrate DisplacementCurrent"
    "substrate eCurrent" "substrate hCurrent" "substrate TotalCurrent" "substrate Charge" "drain OuterVoltage"
    "drain InnerVoltage" "drain QuasiFermiPotential" "drain DisplacementCurrent" "drain eCurrent" "drain hCurrent"
    "drain TotalCurrent" "drain Charge" ]
  functions = [
    Time
    OuterVoltage InnerVoltage QuasiFermiPotential DisplacementCurrent eCurrent
    hCurrent TotalCurrent Charge OuterVoltage InnerVoltage
    QuasiFermiPotential DisplacementCurrent eCurrent hCurrent TotalCurrent
    Charge OuterVoltage InnerVoltage QuasiFermiPotential DisplacementCurrent
    eCurrent hCurrent TotalCurrent Charge OuterVoltage
    InnerVoltage QuasiFermiPotential DisplacementCurrent eCurrent hCurrent
    TotalCurrent Charge ]
}

Data {
      5.00000000000000E-02
      0.00000000000000E+00   0.00000000000000E+00   0.00000000000000E+00   0.00000000000000E+00  -1.34362825266522E-14
      1.42854633365995E-42  -1.34362825266522E-14   2.25251801060317E-15   9.00000000000000E-02   9.00000000000000E-02
      0.00000000000000E+00   0.00000000000000E+00   0.00000000000000E+00   0.00000000000000E+00   0.00000000000000E+00
      1.17867188550847E-15  -1.80000000000000E+00  -1.80000000000000E+00   0.00000000000000E+00   0.00000000000000E+00
      1.54661992773554E-14  -1.97277701525009E-42   1.54661992773554E-14  -5.73950792282771E-15   5.00000000000000E-02
      5.00000000000000E-02   0.00000000000000E+00   0.00000000000000E+00  -2.02991675070329E-15   5.44230681590147E-43
     -2.02991675070329E-15   2.30831802671607E-15
      1.00000000000000E-01
      0.00000000000000E+00   0.00000000000000E+00   0.00000000000000E+00   0.00000000000000E+00   1.43399401403103E-15
      1.89229086778465E-42   1.43399401403103E-15   2.19476166981776E-15   1.80000000000000E-01   1.80000000000000E-01
      0.00000000000000E+00   0.00000000000000E+00   0.00000000000000E+00   0.00000000000000E+00   0.00000000000000E+00
      1.32841583298534E-15  -1.80000000000000E+00  -1.80000000000000E+00   0.00000000000000E+00   0.00000000000000E+00
     -1.52882245812967E-15  -2.35072527388417E-42  -1.52882245812967E-15  -5.77432274832061E-15   5.00000000000000E-02
      5.00000000000000E-02   0.00000000000000E+00   0.00000000000000E+00   9.48284440986424E-17   4.58434406099526E-43
      9.48284440986424E-17   2.25114524551752E-15
      1.50000000000000E-01
      0.00000000000000E+00   0.00000000000000E+00   0.00000000000000E+00   0.00000000000000E+00   1.02484234757695E-13
      2.80412765582953E-42   1.02484234757695E-13   2.13640846560671E-15   2.70000000000000E-01   2.70000000000000E-01
      0.00000000000000E+00   0.00000000000000E+00   0.00000000000000E+00   0.00000000000000E+00   0.00000000000000E+00
      1.48030606397834E-15  -1.80000000000000E+00  -1.80000000000000E+00   0.00000000000000E+00   0.00000000000000E+00
     -1.27679014754826E-13  -3.28195958790877E-42  -1.27679014754826E-13  -5.80975242752671E-15   5.00000000000000E-02
      5.00000000000000E-02   0.00000000000000E+00   0.00000000000000E+00   2.51947799971309E-14   4.77831932079246E-43
      2.51947799971309E-14   2.19303789794167E-15
      2.00000000000000E-01
      0.00000000000000E+00   0.00000000000000E+00   0.00000000000000E+00   0.00000000000000E+00  -5.82241036723415E-14
      2.35457337325212E-42  -5.82241036723415E-14   2.07899789096025E-15   3.60000000000000E-01   3.60000000000000E-01
      0.00000000000000E+00   0.00000000000000E+00   0.00000000000000E+00   0.00000000000000E+00   0.00000000000000E+00
      1.63609561251913E-15  -1.80000000000000E+00  -1.80000000000000E+00   0.00000000000000E+00   0.00000000000000E+00
     -4.64731469513582E-14  -2.83522816809715E-42  -4.64731469513582E-14  -5.84991682908636E-15   5.00000000000000E-02
      5.00000000000000E-02   0.00000000000000E+00   0.00000000000000E+00   1.04697250623700E-13   4.80654794845023E-43
      1.04697250623700E-13   2.13482332560698E-15
      2.50000000000000E-01
      0.00000000000000E+00   0.00000000000000E+00   0.00000000000000E+00   0.00000000000000E+00  -1.45926001353714E-14
      1.69350436727630E-42  -1.45926001353714E-14   2.02585552956168E-15   4.50000000000000E-01   4.50000000000000E-01
      0.00000000000000E+00   0.00000000000000E+00   0.00000000000000E+00   0.00000000000000E+00   0.00000000000000E+00
      1.80075762480835E-15  -1.80000000000000E+00  -1.80000000000000E+00   0.00000000000000E+00   0.00000000000000E+00
      6.23613005670581E-19  -2.09664580594312E-42   6.23613005670581E-19  -5.90544935963532E-15   5.00000000000000E-02
      5.00000000000000E-02   0.00000000000000E+00   0.00000000000000E+00   1.45919765223657E-14   4.03141438666812E-43
      1.45919765223657E-14   2.07883620526529E-15
      3.00000000000000E-01
      0.00000000000000E+00   0.00000000000000E+00   0.00000000000000E+00   0.00000000000000E+00  -3.32508569553218E-13
      2.91277111472950E-42  -3.32508569553218E-13   1.98014646563307E-15   5.40000000000000E-01   5.40000000000000E-01
      0.00000000000000E+00   0.00000000000000E+00   0.00000000000000E+00   0.00000000000000E+00   0.00000000000000E+00
      1.98109906506734E-15  -1.80000000000000E+00  -1.80000000000000E+00   0.00000000000000E+00   0.00000000000000E+00
     -6.31458702022891E-18  -3.56748953259572E-42  -6.31458702022891E-18  -5.99003227697530E-15   5.00000000000000E-02
      5.00000000000000E-02   0.00000000000000E+00   0.00000000000000E+00   3.32514884140238E-13   6.54718417866225E-43
      3.32514884140238E-13   2.02878674627489E-15
      3.50000000000000E-01
      0.00000000000000E+00   0.00000000000000E+00   0.00000000000000E+00   0.00000000000000E+00  -7.60297864279107E-12
      2.53567649628693E-42  -7.60297864279107E-12   1.94194645336340E-15   6.30000000000000E-01   6.30000000000000E-01
      0.00000000000000E+00   0.00000000000000E+00   0.00000000000000E+00   0.00000000000000E+00   0.00000000000000E+00
      2.18040010268741E-15  -1.80000000000000E+00  -1.80000000000000E+00   0.00000000000000E+00   0.00000000000000E+00
     -7.49678056958866E-19  -3.03675121610254E-42  -7.49678056958866E-19  -6.10892787100378E-15   5.00000000000000E-02
      5.00000000000000E-02   0.00000000000000E+00   0.00000000000000E+00   7.60297939246913E-12   5.01074719815607E-43
      7.60297939246913E-12   1.98658131495296E-15
      4.00000000000000E-01
      0.00000000000000E+00   0.00000000000000E+00   0.00000000000000E+00   0.00000000000000E+00  -1.74114900511450E-10
      2.16682271055478E-42  -1.74114900511450E-10   1.90954503639283E-15   7.20000000000000E-01   7.20000000000000E-01
      0.00000000000000E+00   0.00000000000000E+00   0.00000000000000E+00   0.00000000000000E+00   0.00000000000000E+00
      2.39940982177636E-15  -1.80000000000000E+00  -1.80000000000000E+00   0.00000000000000E+00   0.00000000000000E+00
      4.54744797161561E-19  -2.51186620134044E-42   4.54744797161561E-19  -6.26012300905957E-15   5.00000000000000E-02
      5.00000000000000E-02   0.00000000000000E+00   0.00000000000000E+00   1.74114900056706E-10   3.45043490785660E-43
      1.74114900056706E-10   1.95116815089038E-15
      4.50000000000000E-01
      0.00000000000000E+00   0.00000000000000E+00   0.00000000000000E+00   0.00000000000000E+00  -3.96498289670885E-09
      1.65196877134537E-42  -3.96498289670885E-09   1.88149160032896E-15   8.10000000000000E-01   8.10000000000000E-01
      0.00000000000000E+00   0.00000000000000E+00   0.00000000000000E+00   0.00000000000000E+00   0.00000000000000E+00
      2.64151909311473E-15  -1.80000000000000E+00  -1.80000000000000E+00   0.00000000000000E+00   0.00000000000000E+00
      2.05147805570431E-18  -2.35125214544663E-42   2.05147805570431E-18  -6.44382617809736E-15   5.00000000000000E-02
      5.00000000000000E-02   0.00000000000000E+00   0.00000000000000E+00   3.96498289465737E-09   6.99283374101266E-43
      3.96498289465737E-09   1.92081548465367E-15
      5.00000000000000E-01
      0.00000000000000E+00   0.00000000000000E+00   0.00000000000000E+00   0.00000000000000E+00  -8.39374861226553E-08
      1.59815026903207E-42  -8.39374861226553E-08   1.85673904912389E-15   9.00000000000000E-01   9.00000000000000E-01
      0.00000000000000E+00   0.00000000000000E+00   0.00000000000000E+00   0.00000000000000E+00   0.00000000000000E+00
      2.91691180033320E-15  -1.80000000000000E+00  -1.80000000000000E+00   0.00000000000000E+00   0.00000000000000E+00
     -1.10872078948071E-17  -2.07479718620697E-42  -1.10872078948071E-17  -6.66796569279974E-15   5.00000000000000E-02
      5.00000000000000E-02   0.00000000000000E+00   0.00000000000000E+00   8.39374861337425E-08   4.76646917174893E-43
      8.39374861337425E-08   1.89431484334264E-15
      5.50000000000000E-01
      0.00000000000000E+00   0.00000000000000E+00   0.00000000000000E+00   0.00000000000000E+00  -9.90728685015579E-07
      2.57591173749301E-42  -9.90728685015579E-07   1.83442080130036E-15   9.90000000000000E-01   9.90000000000000E-01
      0.00000000000000E+00   0.00000000000000E+00   0.00000000000000E+00   0.00000000000000E+00   0.00000000000000E+00
      3.25864871907489E-15  -1.80000000000000E+00  -1.80000000000000E+00   0.00000000000000E+00   0.00000000000000E+00
     -5.59155760786761E-18  -3.06094100875025E-42  -5.59155760786761E-18  -6.96381631865982E-15   5.00000000000000E-02
      5.00000000000000E-02   0.00000000000000E+00   0.00000000000000E+00   9.90728685021171E-07   4.85029271257248E-43
      9.90728685021171E-07   1.87074679828456E-15
      6.00000000000000E-01
      0.00000000000000E+00   0.00000000000000E+00   0.00000000000000E+00   0.00000000000000E+00  -3.56637328640393E-06
      2.63894783816484E-42  -3.56637328640393E-06   1.81375437190794E-15   1.08000000000000E+00   1.08000000000000E+00
      0.00000000000000E+00   0.00000000000000E+00   0.00000000000000E+00   0.00000000000000E+00   0.00000000000000E+00
      3.69774587738352E-15  -1.80000000000000E+00  -1.80000000000000E+00   0.00000000000000E+00   0.00000000000000E+00
     -3.91286503339335E-16  -3.31500331104345E-42  -3.91286503339335E-16  -7.36081361571135E-15   5.00000000000000E-02
      5.00000000000000E-02   0.00000000000000E+00   0.00000000000000E+00   3.56637328679522E-06   6.76055472878607E-43
      3.56637328679522E-06   1.84931336641988E-15
      6.50000000000000E-01
      0.00000000000000E+00   0.00000000000000E+00   0.00000000000000E+00   0.00000000000000E+00  -6.70270245080486E-06
      2.07799137754476E-42  -6.70270245080486E-06   1.79416255803617E-15   1.17000000000000E+00   1.17000000000000E+00
      0.00000000000000E+00   0.00000000000000E+00   0.00000000000000E+00   0.00000000000000E+00   0.00000000000000E+00
      4.19459669213922E-15  -1.80000000000000E+00  -1.80000000000000E+00   0.00000000000000E+00   0.00000000000000E+00
     -7.18781546802212E-18  -2.79818813723144E-42  -7.18781546802212E-18  -7.81796685487966E-15   5.00000000000000E-02
      5.00000000000000E-02   0.00000000000000E+00   0.00000000000000E+00   6.70270245081204E-06   7.20196759686675E-43
      6.70270245081204E-06   1.82920760470428E-15
      7.00000000000000E-01
      0.00000000000000E+00   0.00000000000000E+00   0.00000000000000E+00   0.00000000000000E+00  -9.85138129593072E-06
      2.38523951565610E-42  -9.85138129593072E-06   1.77531817635675E-15   1.26000000000000E+00   1.26000000000000E+00
      0.00000000000000E+00   0.00000000000000E+00   0.00000000000000E+00   0.00000000000000E+00   0.00000000000000E+00
      4.71618536356517E-15  -1.80000000000000E+00  -1.80000000000000E+00   0.00000000000000E+00   0.00000000000000E+00
      3.53182936315886E-17  -2.96583669449313E-42   3.53182936315886E-17  -8.30147019289456E-15   5.00000000000000E-02
      5.00000000000000E-02   0.00000000000000E+00   0.00000000000000E+00   9.85138129589540E-06   5.80597178837028E-43
      9.85138129589540E-06   1.80996665297266E-15
      7.50000000000000E-01
      0.00000000000000E+00   0.00000000000000E+00   0.00000000000000E+00   0.00000000000000E+00  -1.29176927109015E-05
      2.62434362572429E-42  -1.29176927109015E-05   1.75703116888101E-15   1.35000000000000E+00   1.35000000000000E+00
      0.00000000000000E+00   0.00000000000000E+00   0.00000000000000E+00   0.00000000000000E+00   0.00000000000000E+00
      5.25029944334117E-15  -1.80000000000000E+00  -1.80000000000000E+00   0.00000000000000E+00   0.00000000000000E+00
     -1.05082474495567E-17  -3.28685852808733E-42  -1.05082474495567E-17  -8.79868435243612E-15   5.00000000000000E-02
      5.00000000000000E-02   0.00000000000000E+00   0.00000000000000E+00   1.29176927109120E-05   6.62514902363039E-43
      1.29176927109120E-05   1.79135374021395E-15
      8.00000000000000E-01
      0.00000000000000E+00   0.00000000000000E+00   0.00000000000000E+00   0.00000000000000E+00  -1.58901396744967E-05
      1.87711249480833E-42  -1.58901396744967E-05   1.73917933015260E-15   1.44000000000000E+00   1.44000000000000E+00
      0.00000000000000E+00   0.00000000000000E+00   0.00000000000000E+00   0.00000000000000E+00   0.00000000000000E+00
      5.79188617811268E-15  -1.80000000000000E+00  -1.80000000000000E+00   0.00000000000000E+00   0.00000000000000E+00
     -4.97711151671449E-20  -2.44622384949723E-42  -4.97711151671449E-20  -9.30429009543022E-15   5.00000000000000E-02
      5.00000000000000E-02   0.00000000000000E+00   0.00000000000000E+00   1.58901396744968E-05   5.69111354688896E-43
      1.58901396744968E-05   1.77322458716493E-15
      8.50000000000000E-01
      0.00000000000000E+00   0.00000000000000E+00   0.00000000000000E+00   0.00000000000000E+00  -1.87728491632308E-05
      1.55565133966606E-42  -1.87728491632308E-05   1.72167792205816E-15   1.53000000000000E+00   1.53000000000000E+00
      0.00000000000000E+00   0.00000000000000E+00   0.00000000000000E+00   0.00000000000000E+00   0.00000000000000E+00
      6.33843623476186E-15  -1.80000000000000E+00  -1.80000000000000E+00   0.00000000000000E+00   0.00000000000000E+00
     -7.51973379229964E-12  -2.46994973978620E-42  -7.51973379229964E-12  -9.81559567263719E-15   5.00000000000000E-02
      5.00000000000000E-02   0.00000000000000E+00   0.00000000000000E+00   1.87728566829646E-05   9.14298400120139E-43
      1.87728566829646E-05   1.75548151581718E-15
      9.00000000000000E-01
      0.00000000000000E+00   0.00000000000000E+00   0.00000000000000E+00   0.00000000000000E+00  -2.15726818193678E-05
      2.42054659105494E-42  -2.15726818193678E-05   1.70446518545499E-15   1.62000000000000E+00   1.62000000000000E+00
      0.00000000000000E+00   0.00000000000000E+00   0.00000000000000E+00   0.00000000000000E+00   0.00000000000000E+00
      6.88852836965028E-15  -1.80000000000000E+00  -1.80000000000000E+00   0.00000000000000E+00   0.00000000000000E+00
     -3.93654878901968E-12  -3.27878517993252E-42  -3.93654878901968E-12  -1.03310478958263E-14   5.00000000000000E-02
      5.00000000000000E-02   0.00000000000000E+00   0.00000000000000E+00   2.15726857559166E-05   8.58238588877574E-43
      2.15726857559166E-05   1.73805434072104E-15
      9.50000000000000E-01
      0.00000000000000E+00   0.00000000000000E+00   0.00000000000000E+00   0.00000000000000E+00  -2.42963267011085E-05
      1.98132654472482E-42  -2.42963267011085E-05   1.68749449576129E-15   1.71000000000000E+00   1.71000000000000E+00
      0.00000000000000E+00   0.00000000000000E+00   0.00000000000000E+00   0.00000000000000E+00   0.00000000000000E+00
      7.44127969324111E-15  -1.80000000000000E+00  -1.80000000000000E+00   0.00000000000000E+00   0.00000000000000E+00
     -2.17286399882475E-12  -2.90326053734989E-42  -2.17286399882475E-12  -1.08496648032774E-14   5.00000000000000E-02
      5.00000000000000E-02   0.00000000000000E+00   0.00000000000000E+00   2.42963288739725E-05   9.21933992625079E-43
      2.42963288739725E-05   1.72089061427493E-15
      1.00000000000000E+00
      0.00000000000000E+00   0.00000000000000E+00   0.00000000000000E+00   0.00000000000000E+00  -2.69496759085352E-05
      1.64428594480505E-42  -2.69496759085352E-05   1.67072971763229E-15   1.80000000000000E+00   1.80000000000000E+00
      0.00000000000000E+00   0.00000000000000E+00   0.00000000000000E+00   0.00000000000000E+00   0.00000000000000E+00
      7.99610332665356E-15  -1.80000000000000E+00  -1.80000000000000E+00   0.00000000000000E+00   0.00000000000000E+00
     -1.25226526048487E-12  -2.37566333339626E-42  -1.25226526048487E-12  -1.13707830430277E-14   5.00000000000000E-02
      5.00000000000000E-02   0.00000000000000E+00   0.00000000000000E+00   2.69496771608004E-05   7.31377388591217E-43
      2.69496771608004E-05   1.70394999874185E-15
}
