DF-ISE text

Info {
  version   = 1.0
  type      = xyplot
  datasets  = [
    "time"
    "source OuterVoltage" "source InnerVoltage" "source QuasiFermiPotential" "source DisplacementCurrent" "source eCurrent"
    "source hCurrent" "source TotalCurrent" "source Charge" "gate OuterVoltage" "gate InnerVoltage"
    "gate QuasiFermiPotential" "gate DisplacementCurrent" "gate eCurrent" "gate hCurrent" "gate TotalCurrent"
    "gate Charge" "substrate OuterVoltage" "substrate InnerVoltage" "substrate QuasiFermiPotential" "substrate DisplacementCurrent"
    "substrate eCurrent" "substrate hCurrent" "substrate TotalCurrent" "substrate Charge" "drain OuterVoltage"
    "drain InnerVoltage" "drain QuasiFermiPotential" "drain DisplacementCurrent" "drain eCurrent" "drain hCurrent"
    "drain TotalCurrent" "drain Charge" ]
  functions = [
    Time
    OuterVoltage InnerVoltage QuasiFermiPotential DisplacementCurrent eCurrent
    hCurrent TotalCurrent Charge OuterVoltage InnerVoltage
    QuasiFermiPotential DisplacementCurrent eCurrent hCurrent TotalCurrent
    Charge OuterVoltage InnerVoltage QuasiFermiPotential DisplacementCurrent
    eCurrent hCurrent TotalCurrent Charge OuterVoltage
    InnerVoltage QuasiFermiPotential DisplacementCurrent eCurrent hCurrent
    TotalCurrent Charge ]
}

Data {
      5.00000000000000E-02
      0.00000000000000E+00   0.00000000000000E+00   0.00000000000000E+00   0.00000000000000E+00  -3.36546683749544E-15
     -6.30314852868219E-43  -3.36546683749544E-15   2.25959581591233E-15   9.00000000000000E-02   9.00000000000000E-02
      0.00000000000000E+00   0.00000000000000E+00   0.00000000000000E+00   0.00000000000000E+00   0.00000000000000E+00
      3.91236890864296E-15  -1.80000000000000E+00  -1.80000000000000E+00   0.00000000000000E+00   0.00000000000000E+00
      3.56120720635877E-15   7.82824504737833E-43   3.56120720635877E-15  -8.48842082508846E-15   5.00000000000000E-02
      5.00000000000000E-02   0.00000000000000E+00   0.00000000000000E+00  -1.95740368863331E-16  -1.52509651869614E-43
     -1.95740368863331E-16   2.31645610053318E-15
      1.00000000000000E-01
      0.00000000000000E+00   0.00000000000000E+00   0.00000000000000E+00   0.00000000000000E+00   3.98780042557874E-14
     -3.37993108901953E-44   3.98780042557874E-14   2.19931003288792E-15   1.80000000000000E-01   1.80000000000000E-01
      0.00000000000000E+00   0.00000000000000E+00   0.00000000000000E+00   0.00000000000000E+00   0.00000000000000E+00
      4.12685741524240E-15  -1.80000000000000E+00  -1.80000000000000E+00   0.00000000000000E+00   0.00000000000000E+00
     -5.96421785570698E-14   1.44233320675684E-43  -5.96421785570698E-14  -8.58323475003157E-15   5.00000000000000E-02
      5.00000000000000E-02   0.00000000000000E+00   0.00000000000000E+00   1.97641743012825E-14  -1.10434009785489E-43
      1.97641743012825E-14   2.25706730190125E-15
      1.50000000000000E-01
      0.00000000000000E+00   0.00000000000000E+00   0.00000000000000E+00   0.00000000000000E+00   3.07767555344312E-14
     -3.70491860346682E-43   3.07767555344312E-14   2.13806427791430E-15   2.70000000000000E-01   2.70000000000000E-01
      0.00000000000000E+00   0.00000000000000E+00   0.00000000000000E+00   0.00000000000000E+00   0.00000000000000E+00
      4.34292399532565E-15  -1.80000000000000E+00  -1.80000000000000E+00   0.00000000000000E+00   0.00000000000000E+00
     -1.42919154523850E-13   5.29748950343770E-43  -1.42919154523850E-13  -8.67720818918634E-15   5.00000000000000E-02
      5.00000000000000E-02   0.00000000000000E+00   0.00000000000000E+00   1.12142398989419E-13  -1.59257089997088E-43
      1.12142398989419E-13   2.19621991594639E-15
      2.00000000000000E-01
      0.00000000000000E+00   0.00000000000000E+00   0.00000000000000E+00   0.00000000000000E+00  -2.33080585417956E-16
     -7.48598363722594E-43  -2.33080585417956E-16   2.07746833770243E-15   3.60000000000000E-01   3.60000000000000E-01
      0.00000000000000E+00   0.00000000000000E+00   0.00000000000000E+00   0.00000000000000E+00   0.00000000000000E+00
      4.56149443558594E-15  -1.80000000000000E+00  -1.80000000000000E+00   0.00000000000000E+00   0.00000000000000E+00
     -2.65404672027962E-15   8.13593347647782E-43  -2.65404672027962E-15  -8.77395045288950E-15   5.00000000000000E-02
      5.00000000000000E-02   0.00000000000000E+00   0.00000000000000E+00   2.88712730569757E-15  -6.49949839251879E-44
      2.88712730569757E-15   2.13498767960112E-15
      2.50000000000000E-01
      0.00000000000000E+00   0.00000000000000E+00   0.00000000000000E+00   0.00000000000000E+00  -1.14552747812914E-13
     -7.15438856277236E-43  -1.14552747812914E-13   2.02038855032070E-15   4.50000000000000E-01   4.50000000000000E-01
      0.00000000000000E+00   0.00000000000000E+00   0.00000000000000E+00   0.00000000000000E+00   0.00000000000000E+00
      4.78691882888157E-15  -1.80000000000000E+00  -1.80000000000000E+00   0.00000000000000E+00   0.00000000000000E+00
      1.10830907293143E-13   8.22750182067395E-43   1.10830907293143E-13  -8.88287226362642E-15   5.00000000000000E-02
      5.00000000000000E-02   0.00000000000000E+00   0.00000000000000E+00   3.72184051977136E-15  -1.07311325790159E-43
      3.72184051977136E-15   2.07556488442416E-15
      3.00000000000000E-01
      0.00000000000000E+00   0.00000000000000E+00   0.00000000000000E+00   0.00000000000000E+00  -8.01611067597635E-14
     -5.22381225600101E-43  -8.01611067597635E-14   1.96941545733402E-15   5.40000000000000E-01   5.40000000000000E-01
      0.00000000000000E+00   0.00000000000000E+00   0.00000000000000E+00   0.00000000000000E+00   0.00000000000000E+00
      5.02637125805132E-15  -1.80000000000000E+00  -1.80000000000000E+00   0.00000000000000E+00   0.00000000000000E+00
      6.39630985933988E-15   5.97852887610537E-43   6.39630985933988E-15  -9.01681539745528E-15   5.00000000000000E-02
      5.00000000000000E-02   0.00000000000000E+00   0.00000000000000E+00   7.37647969004237E-14  -7.54716620104361E-44
      7.37647969004237E-14   2.02102868206994E-15
      3.50000000000000E-01
      0.00000000000000E+00   0.00000000000000E+00   0.00000000000000E+00   0.00000000000000E+00  -1.68034821352490E-12
     -4.68232728166176E-43  -1.68034821352490E-12   1.92490640569356E-15   6.30000000000000E-01   6.30000000000000E-01
      0.00000000000000E+00   0.00000000000000E+00   0.00000000000000E+00   0.00000000000000E+00   0.00000000000000E+00
      5.28391438164600E-15  -1.80000000000000E+00  -1.80000000000000E+00   0.00000000000000E+00   0.00000000000000E+00
     -2.26504422587666E-18   6.08554160104286E-43  -2.26504422587666E-18  -9.18185994850323E-15   5.00000000000000E-02
      5.00000000000000E-02   0.00000000000000E+00   0.00000000000000E+00   1.68035047856912E-12  -1.40321431938110E-43
      1.68035047856912E-12   1.97303916116367E-15
      4.00000000000000E-01
      0.00000000000000E+00   0.00000000000000E+00   0.00000000000000E+00   0.00000000000000E+00  -3.84271867132553E-11
     -6.69958675105533E-43  -3.84271867132553E-11   1.88565484283583E-15   7.20000000000000E-01   7.20000000000000E-01
      0.00000000000000E+00   0.00000000000000E+00   0.00000000000000E+00   0.00000000000000E+00   0.00000000000000E+00
      5.56020717087482E-15  -1.80000000000000E+00  -1.80000000000000E+00   0.00000000000000E+00   0.00000000000000E+00
     -9.18889394092120E-15   7.28178008221186E-43  -9.18889394092120E-15  -9.37689428142599E-15   5.00000000000000E-02
      5.00000000000000E-02   0.00000000000000E+00   0.00000000000000E+00   3.84363756071962E-11  -5.82193331156530E-44
      3.84363756071962E-11   1.93103226771534E-15
      4.50000000000000E-01
      0.00000000000000E+00   0.00000000000000E+00   0.00000000000000E+00   0.00000000000000E+00  -8.79616781775716E-10
     -2.59364070253982E-43  -8.79616781775716E-10   1.85046461984940E-15   8.10000000000000E-01   8.10000000000000E-01
      0.00000000000000E+00   0.00000000000000E+00   0.00000000000000E+00   0.00000000000000E+00   0.00000000000000E+00
      5.85875172619848E-15  -1.80000000000000E+00  -1.80000000000000E+00   0.00000000000000E+00   0.00000000000000E+00
     -7.63278281464609E-18   4.34834292020319E-43  -7.63278281464609E-18  -9.60289837636849E-15   5.00000000000000E-02
      5.00000000000000E-02   0.00000000000000E+00   0.00000000000000E+00   8.79616789408499E-10  -1.75470221766337E-43
      8.79616789408499E-10   1.89368203032060E-15
      5.00000000000000E-01
      0.00000000000000E+00   0.00000000000000E+00   0.00000000000000E+00   0.00000000000000E+00  -1.93830024595510E-08
     -4.24330165213035E-43  -1.93830024595510E-08   1.81837801482262E-15   9.00000000000000E-01   9.00000000000000E-01
      0.00000000000000E+00   0.00000000000000E+00   0.00000000000000E+00   0.00000000000000E+00   0.00000000000000E+00
      6.19406079338012E-15  -1.80000000000000E+00  -1.80000000000000E+00   0.00000000000000E+00   0.00000000000000E+00
     -1.63140025838499E-18   5.23905558751208E-43  -1.63140025838499E-18  -9.87238508544121E-15   5.00000000000000E-02
      5.00000000000000E-02   0.00000000000000E+00   0.00000000000000E+00   1.93830024611824E-08  -9.95753935381740E-44
      1.93830024611824E-08   1.85994627723847E-15
      5.50000000000000E-01
      0.00000000000000E+00   0.00000000000000E+00   0.00000000000000E+00   0.00000000000000E+00  -2.71789888276947E-07
     -5.51154662224598E-43  -2.71789888276947E-07   1.78859512630538E-15   9.90000000000000E-01   9.90000000000000E-01
      0.00000000000000E+00   0.00000000000000E+00   0.00000000000000E+00   0.00000000000000E+00   0.00000000000000E+00
      6.65533065841868E-15  -1.80000000000000E+00  -1.80000000000000E+00   0.00000000000000E+00   0.00000000000000E+00
     -4.37141732100134E-18   6.29789439336005E-43  -4.37141732100134E-18  -1.02728593589021E-14   5.00000000000000E-02
      5.00000000000000E-02   0.00000000000000E+00   0.00000000000000E+00   2.71789888281318E-07  -7.86347771114064E-44
      2.71789888281318E-07   1.82893357417807E-15
      6.00000000000000E-01
      0.00000000000000E+00   0.00000000000000E+00   0.00000000000000E+00   0.00000000000000E+00  -1.18621020310841E-06
     -6.06381914473859E-43  -1.18621020310841E-06   1.76037856276503E-15   1.08000000000000E+00   1.08000000000000E+00
      0.00000000000000E+00   0.00000000000000E+00   0.00000000000000E+00   0.00000000000000E+00   0.00000000000000E+00
      7.38417043560253E-15  -1.80000000000000E+00  -1.80000000000000E+00   0.00000000000000E+00   0.00000000000000E+00
     -1.07513290836614E-15   8.02761141707622E-43  -1.07513290836614E-15  -1.09444797825247E-14   5.00000000000000E-02
      5.00000000000000E-02   0.00000000000000E+00   0.00000000000000E+00   1.18621020418355E-06  -1.96379227233763E-43
      1.18621020418355E-06   1.79993078415712E-15
      6.50000000000000E-01
      0.00000000000000E+00   0.00000000000000E+00   0.00000000000000E+00   0.00000000000000E+00  -2.47304839881506E-06
     -2.31020902662089E-43  -2.47304839881506E-06   1.73314428072872E-15   1.17000000000000E+00   1.17000000000000E+00
      0.00000000000000E+00   0.00000000000000E+00   0.00000000000000E+00   0.00000000000000E+00   0.00000000000000E+00
      8.29231349489890E-15  -1.80000000000000E+00  -1.80000000000000E+00   0.00000000000000E+00   0.00000000000000E+00
     -5.15139693653345E-18   4.96954922850028E-43  -5.15139693653345E-18  -1.17976502101764E-14   5.00000000000000E-02
      5.00000000000000E-02   0.00000000000000E+00   0.00000000000000E+00   2.47304839882022E-06  -2.65934020187939E-43
      2.47304839882022E-06   1.77219243454880E-15
      7.00000000000000E-01
      0.00000000000000E+00   0.00000000000000E+00   0.00000000000000E+00   0.00000000000000E+00  -3.86006108034831E-06
     -3.14464463248746E-44  -3.86006108034831E-06   1.70658537769018E-15   1.26000000000000E+00   1.26000000000000E+00
      0.00000000000000E+00   0.00000000000000E+00   0.00000000000000E+00   0.00000000000000E+00   0.00000000000000E+00
      9.27539376726491E-15  -1.80000000000000E+00  -1.80000000000000E+00   0.00000000000000E+00   0.00000000000000E+00
     -2.39399548583729E-17   1.06515870796752E-43  -2.39399548583729E-17  -1.27272403519990E-14   5.00000000000000E-02
      5.00000000000000E-02   0.00000000000000E+00   0.00000000000000E+00   3.86006108037225E-06  -7.50694244718770E-44
      3.86006108037225E-06   1.74526120704394E-15
      7.50000000000000E-01
      0.00000000000000E+00   0.00000000000000E+00   0.00000000000000E+00   0.00000000000000E+00  -5.27102063091580E-06
     -4.82850921635197E-43  -5.27102063091580E-06   1.68052803355975E-15   1.35000000000000E+00   1.35000000000000E+00
      0.00000000000000E+00   0.00000000000000E+00   0.00000000000000E+00   0.00000000000000E+00   0.00000000000000E+00
      1.02942090643383E-14  -1.80000000000000E+00  -1.80000000000000E+00   0.00000000000000E+00   0.00000000000000E+00
      2.52522219775064E-18   5.89706970765076E-43   2.52522219775064E-18  -1.36936438324015E-14   5.00000000000000E-02
      5.00000000000000E-02   0.00000000000000E+00   0.00000000000000E+00   5.27102063091328E-06  -1.06856049129879E-43
      5.27102063091328E-06   1.71890673450352E-15
      8.00000000000000E-01
      0.00000000000000E+00   0.00000000000000E+00   0.00000000000000E+00   0.00000000000000E+00  -6.68252135222598E-06
     -1.28079381484435E-43  -6.68252135222598E-06   1.65486097740581E-15   1.44000000000000E+00   1.44000000000000E+00
      0.00000000000000E+00   0.00000000000000E+00   0.00000000000000E+00   0.00000000000000E+00   0.00000000000000E+00
      1.13333133470063E-14  -1.80000000000000E+00  -1.80000000000000E+00   0.00000000000000E+00   0.00000000000000E+00
      1.31567009193537E-17   3.46370418059909E-43   1.31567009193537E-17  -1.46811661986941E-14   5.00000000000000E-02
      5.00000000000000E-02   0.00000000000000E+00   0.00000000000000E+00   6.68252135221282E-06  -2.18291036575473E-43
      6.68252135221282E-06   1.69299187428197E-15
      8.50000000000000E-01
      0.00000000000000E+00   0.00000000000000E+00   0.00000000000000E+00   0.00000000000000E+00  -8.08589012970832E-06
     -5.96587482979379E-43  -8.08589012970832E-06   1.62950725425053E-15   1.53000000000000E+00   1.53000000000000E+00
      0.00000000000000E+00   0.00000000000000E+00   0.00000000000000E+00   0.00000000000000E+00   0.00000000000000E+00
      1.23853836393624E-14  -1.80000000000000E+00  -1.80000000000000E+00   0.00000000000000E+00   0.00000000000000E+00
      1.45830446849749E-17   8.16336921790900E-43   1.45830446849749E-17  -1.56823161163303E-14   5.00000000000000E-02
      5.00000000000000E-02   0.00000000000000E+00   0.00000000000000E+00   8.08589012969373E-06  -2.19749438811521E-43
      8.08589012969373E-06   1.66742522271737E-15
      9.00000000000000E-01
      0.00000000000000E+00   0.00000000000000E+00   0.00000000000000E+00   0.00000000000000E+00  -9.47754459871860E-06
     -6.59642774067476E-43  -9.47754459871860E-06   1.60441092270426E-15   1.62000000000000E+00   1.62000000000000E+00
      0.00000000000000E+00   0.00000000000000E+00   0.00000000000000E+00   0.00000000000000E+00   0.00000000000000E+00
      1.34464287317277E-14  -1.80000000000000E+00  -1.80000000000000E+00   0.00000000000000E+00   0.00000000000000E+00
     -3.15084695351777E-12   8.58614900888692E-43  -3.15084695351777E-12  -1.66929814633068E-14   5.00000000000000E-02
      5.00000000000000E-02   0.00000000000000E+00   0.00000000000000E+00   9.47754774956555E-06  -1.98972126821216E-43
      9.47754774956555E-06   1.64214180887483E-15
      9.50000000000000E-01
      0.00000000000000E+00   0.00000000000000E+00   0.00000000000000E+00   0.00000000000000E+00  -1.08559741408486E-05
     -1.69919437627198E-43  -1.08559741408486E-05   1.57952985993207E-15   1.71000000000000E+00   1.71000000000000E+00
      0.00000000000000E+00   0.00000000000000E+00   0.00000000000000E+00   0.00000000000000E+00   0.00000000000000E+00
      1.45140468869837E-14  -1.80000000000000E+00  -1.80000000000000E+00   0.00000000000000E+00   0.00000000000000E+00
     -1.76839533605905E-12   2.25490053749027E-43  -1.76839533605905E-12  -1.77106702175409E-14   5.00000000000000E-02
      5.00000000000000E-02   0.00000000000000E+00   0.00000000000000E+00   1.08559759092440E-05  -5.55706161218286E-44
      1.08559759092440E-05   1.61709347062516E-15
      1.00000000000000E+00
      0.00000000000000E+00   0.00000000000000E+00   0.00000000000000E+00   0.00000000000000E+00  -1.22205854354421E-05
     -8.03949171897034E-43  -1.22205854354421E-05   1.55483148887753E-15   1.80000000000000E+00   1.80000000000000E+00
      0.00000000000000E+00   0.00000000000000E+00   0.00000000000000E+00   0.00000000000000E+00   0.00000000000000E+00
      1.55866843513493E-14  -1.80000000000000E+00  -1.80000000000000E+00   0.00000000000000E+00   0.00000000000000E+00
     -1.02967563233470E-12   8.88186677344075E-43  -1.02967563233470E-12  -1.87337592423012E-14   5.00000000000000E-02
      5.00000000000000E-02   0.00000000000000E+00   0.00000000000000E+00   1.22205864651178E-05  -8.42375054470410E-44
      1.22205864651178E-05   1.59224340207439E-15
}
