DF-ISE text

Info {
  version   = 1.0
  type      = xyplot
  datasets  = [
    "time"
    "source OuterVoltage" "source InnerVoltage" "source QuasiFermiPotential" "source DisplacementCurrent" "source eCurrent"
    "source hCurrent" "source TotalCurrent" "source Charge" "gate OuterVoltage" "gate InnerVoltage"
    "gate QuasiFermiPotential" "gate DisplacementCurrent" "gate eCurrent" "gate hCurrent" "gate TotalCurrent"
    "gate Charge" "substrate OuterVoltage" "substrate InnerVoltage" "substrate QuasiFermiPotential" "substrate DisplacementCurrent"
    "substrate eCurrent" "substrate hCurrent" "substrate TotalCurrent" "substrate Charge" "drain OuterVoltage"
    "drain InnerVoltage" "drain QuasiFermiPotential" "drain DisplacementCurrent" "drain eCurrent" "drain hCurrent"
    "drain TotalCurrent" "drain Charge" ]
  functions = [
    Time
    OuterVoltage InnerVoltage QuasiFermiPotential DisplacementCurrent eCurrent
    hCurrent TotalCurrent Charge OuterVoltage InnerVoltage
    QuasiFermiPotential DisplacementCurrent eCurrent hCurrent TotalCurrent
    Charge OuterVoltage InnerVoltage QuasiFermiPotential DisplacementCurrent
    eCurrent hCurrent TotalCurrent Charge OuterVoltage
    InnerVoltage QuasiFermiPotential DisplacementCurrent eCurrent hCurrent
    TotalCurrent Charge ]
}

Data {
      5.00000000000000E-02
      0.00000000000000E+00   0.00000000000000E+00   0.00000000000000E+00   0.00000000000000E+00  -3.24802570214554E-15
     -1.54407924588687E-34  -3.24802570214554E-15   1.79361739957213E-15   9.00000000000000E-02   9.00000000000000E-02
      0.00000000000000E+00   0.00000000000000E+00   0.00000000000000E+00   0.00000000000000E+00   0.00000000000000E+00
      1.91538244606427E-15  -9.00000000000000E-01  -9.00000000000000E-01   0.00000000000000E+00   0.00000000000000E+00
      3.24635001632012E-15   1.54407924588575E-34   3.24635001632012E-15  -7.31889393838113E-15   1.80000000000000E+00
      1.80000000000000E+00   0.00000000000000E+00   0.00000000000000E+00   1.67568582541679E-18   1.12051064843949E-46
      1.67568582541679E-18   3.60989409274474E-15
      1.00000000000000E-01
      0.00000000000000E+00   0.00000000000000E+00   0.00000000000000E+00   0.00000000000000E+00   5.45122594996359E-13
     -2.45175682297014E-34   5.45122594996359E-13   1.73346285654154E-15   1.80000000000000E-01   1.80000000000000E-01
      0.00000000000000E+00   0.00000000000000E+00   0.00000000000000E+00   0.00000000000000E+00   0.00000000000000E+00
      2.13549902656561E-15  -9.00000000000000E-01  -9.00000000000000E-01   0.00000000000000E+00   0.00000000000000E+00
     -5.45148120503386E-13   2.45175682297010E-34  -5.45148120503386E-13  -7.43775718189435E-15   1.80000000000000E+00
      1.80000000000000E+00   0.00000000000000E+00   0.00000000000000E+00   2.55255070267103E-17   3.87774977434306E-48
      2.55255070267103E-17   3.56879529878721E-15
      1.50000000000000E-01
      0.00000000000000E+00   0.00000000000000E+00   0.00000000000000E+00   0.00000000000000E+00   2.80048235392749E-14
     -1.81099973017836E-34   2.80048235392749E-14   1.67226871793522E-15   2.70000000000000E-01   2.70000000000000E-01
      0.00000000000000E+00   0.00000000000000E+00   0.00000000000000E+00   0.00000000000000E+00   0.00000000000000E+00
      2.35510602253376E-15  -9.00000000000000E-01  -9.00000000000000E-01   0.00000000000000E+00   0.00000000000000E+00
     -2.85128578079064E-14   1.81099973017835E-34  -2.85128578079064E-14  -7.55462992094941E-15   1.80000000000000E+00
      1.80000000000000E+00   0.00000000000000E+00   0.00000000000000E+00   5.08034268631486E-16   4.38356198656002E-49
      5.08034268631486E-16   3.52725518048043E-15
      2.00000000000000E-01
      0.00000000000000E+00   0.00000000000000E+00   0.00000000000000E+00   0.00000000000000E+00  -1.58812854236347E-14
     -1.98716385124726E-34  -1.58812854236347E-14   1.61138014841340E-15   3.60000000000000E-01   3.60000000000000E-01
      0.00000000000000E+00   0.00000000000000E+00   0.00000000000000E+00   0.00000000000000E+00   0.00000000000000E+00
      2.57555257744719E-15  -9.00000000000000E-01  -9.00000000000000E-01   0.00000000000000E+00   0.00000000000000E+00
      5.51662200938986E-15   1.98716385124726E-34   5.51662200938986E-15  -7.67223879056933E-15   1.80000000000000E+00
      1.80000000000000E+00   0.00000000000000E+00   0.00000000000000E+00   1.03646634142448E-14   2.58239312515078E-50
      1.03646634142448E-14   3.48530606470874E-15
      2.50000000000000E-01
      0.00000000000000E+00   0.00000000000000E+00   0.00000000000000E+00   0.00000000000000E+00  -2.13618384324213E-13
     -1.64253935200985E-34  -2.13618384324213E-13   1.55359074870636E-15   4.50000000000000E-01   4.50000000000000E-01
      0.00000000000000E+00   0.00000000000000E+00   0.00000000000000E+00   0.00000000000000E+00   0.00000000000000E+00
      2.79997864441595E-15  -9.00000000000000E-01  -9.00000000000000E-01   0.00000000000000E+00   0.00000000000000E+00
      5.56673644147005E-18   1.64253935200985E-34   5.56673644147005E-18  -7.79649164465852E-15   1.80000000000000E+00
      1.80000000000000E+00   0.00000000000000E+00   0.00000000000000E+00   2.13612817587772E-13  -2.19486151901525E-50
      2.13612817587772E-13   3.44292225153623E-15
      3.00000000000000E-01
      0.00000000000000E+00   0.00000000000000E+00   0.00000000000000E+00   0.00000000000000E+00  -4.44224131177611E-12
     -1.30878206019887E-34  -4.44224131177611E-12   1.50216271817439E-15   5.40000000000000E-01   5.40000000000000E-01
      0.00000000000000E+00   0.00000000000000E+00   0.00000000000000E+00   0.00000000000000E+00   0.00000000000000E+00
      3.03181447045256E-15  -9.00000000000000E-01  -9.00000000000000E-01   0.00000000000000E+00   0.00000000000000E+00
     -2.12170487467204E-15   1.30878206019887E-34  -2.12170487467204E-15  -7.93395202943307E-15   1.80000000000000E+00
      1.80000000000000E+00   0.00000000000000E+00   0.00000000000000E+00   4.44436301665078E-12  -1.23955494563292E-50
      4.44436301665078E-12   3.39997484080613E-15
      3.50000000000000E-01
      0.00000000000000E+00   0.00000000000000E+00   0.00000000000000E+00   0.00000000000000E+00  -9.33170629212614E-11
     -1.55716631558350E-34  -9.33170629212614E-11   1.45774157554987E-15   6.30000000000000E-01   6.30000000000000E-01
      0.00000000000000E+00   0.00000000000000E+00   0.00000000000000E+00   0.00000000000000E+00   0.00000000000000E+00
      3.27272560352755E-15  -9.00000000000000E-01  -9.00000000000000E-01   0.00000000000000E+00   0.00000000000000E+00
     -1.29693767507029E-18   1.55716631558350E-34  -1.29693767507029E-18  -8.08671711242434E-15   1.80000000000000E+00
      1.80000000000000E+00   0.00000000000000E+00   0.00000000000000E+00   9.33170642181990E-11  -7.24674950629633E-51
      9.33170642181990E-11   3.35624993334692E-15
      4.00000000000000E-01
      0.00000000000000E+00   0.00000000000000E+00   0.00000000000000E+00   0.00000000000000E+00  -1.97035872167343E-09
     -2.30191613811191E-34  -1.97035872167343E-09   1.41907102374506E-15   7.20000000000000E-01   7.20000000000000E-01
      0.00000000000000E+00   0.00000000000000E+00   0.00000000000000E+00   0.00000000000000E+00   0.00000000000000E+00
      3.52527297211342E-15  -9.00000000000000E-01  -9.00000000000000E-01   0.00000000000000E+00   0.00000000000000E+00
     -3.89789683859973E-18   2.30191613811191E-34  -3.89789683859973E-18  -8.25594046098720E-15   1.80000000000000E+00
      1.80000000000000E+00   0.00000000000000E+00   0.00000000000000E+00   1.97035872557132E-09  -7.75590112988683E-51
      1.97035872557132E-09   3.31159646512871E-15
      4.50000000000000E-01
      0.00000000000000E+00   0.00000000000000E+00   0.00000000000000E+00   0.00000000000000E+00  -3.97170791277544E-08
     -1.77116315555459E-34  -3.97170791277544E-08   1.38477937863844E-15   8.10000000000000E-01   8.10000000000000E-01
      0.00000000000000E+00   0.00000000000000E+00   0.00000000000000E+00   0.00000000000000E+00   0.00000000000000E+00
      3.80367437826618E-15  -9.00000000000000E-01  -9.00000000000000E-01   0.00000000000000E+00   0.00000000000000E+00
      1.90579528457937E-18   1.77116315555459E-34   1.90579528457937E-18  -8.45447735441044E-15   1.80000000000000E+00
      1.80000000000000E+00   0.00000000000000E+00   0.00000000000000E+00   3.97170791258487E-08  -2.84487526253555E-51
      3.97170791258487E-08   3.26602359750583E-15
      5.00000000000000E-01
      0.00000000000000E+00   0.00000000000000E+00   0.00000000000000E+00   0.00000000000000E+00  -4.99395973679770E-07
     -2.07092353774879E-34  -4.99395973679770E-07   1.35356846260263E-15   9.00000000000000E-01   9.00000000000000E-01
      0.00000000000000E+00   0.00000000000000E+00   0.00000000000000E+00   0.00000000000000E+00   0.00000000000000E+00
      4.18816293392446E-15  -9.00000000000000E-01  -9.00000000000000E-01   0.00000000000000E+00   0.00000000000000E+00
     -4.11555071885058E-18   2.07092353774880E-34  -4.11555071885058E-18  -8.76128381835805E-15   1.80000000000000E+00
      1.80000000000000E+00   0.00000000000000E+00   0.00000000000000E+00   4.99395973683886E-07  -1.96838566110713E-51
      4.99395973683886E-07   3.21955242183097E-15
      5.50000000000000E-01
      0.00000000000000E+00   0.00000000000000E+00   0.00000000000000E+00   0.00000000000000E+00  -2.44991708335030E-06
     -1.98670509973356E-34  -2.44991708335030E-06   1.32433188774004E-15   9.90000000000000E-01   9.90000000000000E-01
      0.00000000000000E+00   0.00000000000000E+00   0.00000000000000E+00   0.00000000000000E+00   0.00000000000000E+00
      4.73413165114690E-15  -9.00000000000000E-01  -9.00000000000000E-01   0.00000000000000E+00   0.00000000000000E+00
     -1.74770422312321E-17   1.98670509973356E-34  -1.74770422312321E-17  -9.23049803597421E-15   1.80000000000000E+00
      1.80000000000000E+00   0.00000000000000E+00   0.00000000000000E+00   2.44991708336777E-06   3.57785934493689E-52
      2.44991708336777E-06   3.17203449708726E-15
      6.00000000000000E-01
      0.00000000000000E+00   0.00000000000000E+00   0.00000000000000E+00   0.00000000000000E+00  -6.56480798956385E-06
     -1.71613438231541E-34  -6.56480798956385E-06   1.29634957771140E-15   1.08000000000000E+00   1.08000000000000E+00
      0.00000000000000E+00   0.00000000000000E+00   0.00000000000000E+00   0.00000000000000E+00   0.00000000000000E+00
      5.36629919853513E-15  -9.00000000000000E-01  -9.00000000000000E-01   0.00000000000000E+00   0.00000000000000E+00
      5.27469802376915E-18   1.71613438231541E-34   5.27469802376915E-18  -9.78600696951639E-15   1.80000000000000E+00
      1.80000000000000E+00   0.00000000000000E+00   0.00000000000000E+00   6.56480798955858E-06  -7.47862891298540E-52
      6.56480798955858E-06   3.12335819326988E-15
      6.50000000000000E-01
      0.00000000000000E+00   0.00000000000000E+00   0.00000000000000E+00   0.00000000000000E+00  -1.29735288622086E-05
     -1.25016795218864E-34  -1.29735288622086E-05   1.26924942858775E-15   1.17000000000000E+00   1.17000000000000E+00
      0.00000000000000E+00   0.00000000000000E+00   0.00000000000000E+00   0.00000000000000E+00   0.00000000000000E+00
      6.03990469805535E-15  -9.00000000000000E-01  -9.00000000000000E-01   0.00000000000000E+00   0.00000000000000E+00
      4.47388112423635E-18   1.25016795218864E-34   4.47388112423635E-18  -1.03826771655543E-14   1.80000000000000E+00
      1.80000000000000E+00   0.00000000000000E+00   0.00000000000000E+00   1.29735288622041E-05  -1.61284042583321E-51
      1.29735288622041E-05   3.07352303891125E-15
      7.00000000000000E-01
      0.00000000000000E+00   0.00000000000000E+00   0.00000000000000E+00   0.00000000000000E+00  -2.16301562324166E-05
     -9.53621756137803E-35  -2.16301562324166E-05   1.24281463692495E-15   1.26000000000000E+00   1.26000000000000E+00
      0.00000000000000E+00   0.00000000000000E+00   0.00000000000000E+00   0.00000000000000E+00   0.00000000000000E+00
      6.73834484505810E-15  -9.00000000000000E-01  -9.00000000000000E-01   0.00000000000000E+00   0.00000000000000E+00
     -1.48534589114236E-18   9.53621756137803E-35  -1.48534589114236E-18  -1.10037782095503E-14   1.80000000000000E+00
      1.80000000000000E+00   0.00000000000000E+00   0.00000000000000E+00   2.16301562324181E-05  -9.11026631179183E-52
      2.16301562324181E-05   3.02261872756730E-15
      7.50000000000000E-01
      0.00000000000000E+00   0.00000000000000E+00   0.00000000000000E+00   0.00000000000000E+00  -3.24372542917448E-05
     -2.62792580957775E-34  -3.24372542917448E-05   1.21690381285283E-15   1.35000000000000E+00   1.35000000000000E+00
      0.00000000000000E+00   0.00000000000000E+00   0.00000000000000E+00   0.00000000000000E+00   0.00000000000000E+00
      7.45445029724170E-15  -9.00000000000000E-01  -9.00000000000000E-01   0.00000000000000E+00   0.00000000000000E+00
      3.23029297067035E-18   2.62792580957775E-34   3.23029297067035E-18  -1.16421240816916E-14   1.80000000000000E+00
      1.80000000000000E+00   0.00000000000000E+00   0.00000000000000E+00   3.24372542917417E-05  -6.00773007434345E-52
      3.24372542917417E-05   2.97076997159706E-15
      8.00000000000000E-01
      0.00000000000000E+00   0.00000000000000E+00   0.00000000000000E+00   0.00000000000000E+00  -4.52815902972998E-05
     -2.78271059187952E-34  -4.52815902972998E-05   1.19141829639537E-15   1.44000000000000E+00   1.44000000000000E+00
      0.00000000000000E+00   0.00000000000000E+00   0.00000000000000E+00   0.00000000000000E+00   0.00000000000000E+00
      8.18463970641053E-15  -9.00000000000000E-01  -9.00000000000000E-01   0.00000000000000E+00   0.00000000000000E+00
      6.17918772510282E-18   2.78271059187952E-34   6.17918772510282E-18  -1.22940907957877E-14   1.80000000000000E+00
      1.80000000000000E+00   0.00000000000000E+00   0.00000000000000E+00   4.52815902972936E-05  -1.09469144643732E-51
      4.52815902972936E-05   2.91803279298181E-15
      8.50000000000000E-01
      0.00000000000000E+00   0.00000000000000E+00   0.00000000000000E+00   0.00000000000000E+00  -6.00464696184449E-05
     -1.08939601311531E-34  -6.00464696184449E-05   1.16628601612233E-15   1.53000000000000E+00   1.53000000000000E+00
      0.00000000000000E+00   0.00000000000000E+00   0.00000000000000E+00   0.00000000000000E+00   0.00000000000000E+00
      8.92698604420903E-15  -9.00000000000000E-01  -9.00000000000000E-01   0.00000000000000E+00   0.00000000000000E+00
      2.65742848413518E-18   1.08939601311531E-34   2.65742848413518E-18  -1.29576431609976E-14   1.80000000000000E+00
      1.80000000000000E+00   0.00000000000000E+00   0.00000000000000E+00   6.00464696184423E-05   3.89422983633248E-52
      6.00464696184423E-05   2.86437110066627E-15
      9.00000000000000E-01
      0.00000000000000E+00   0.00000000000000E+00   0.00000000000000E+00   0.00000000000000E+00  -7.66166961381595E-05
     -2.00823766951881E-34  -7.66166961381595E-05   1.14145248650669E-15   1.62000000000000E+00   1.62000000000000E+00
      0.00000000000000E+00   0.00000000000000E+00   0.00000000000000E+00   0.00000000000000E+00   0.00000000000000E+00
      9.68036235607901E-15  -9.00000000000000E-01  -9.00000000000000E-01   0.00000000000000E+00   0.00000000000000E+00
      1.59871386362447E-17   2.00823766951881E-34   1.59871386362447E-17  -1.36315608498996E-14   1.80000000000000E+00
      1.80000000000000E+00   0.00000000000000E+00   0.00000000000000E+00   7.66166961381434E-05  -6.12415368768027E-52
      7.66166961381434E-05   2.80974600731394E-15
      9.50000000000000E-01
      0.00000000000000E+00   0.00000000000000E+00   0.00000000000000E+00   0.00000000000000E+00  -9.48810237124507E-05
     -1.82137672517441E-34  -9.48810237124507E-05   1.11687537522759E-15   1.71000000000000E+00   1.71000000000000E+00
      0.00000000000000E+00   0.00000000000000E+00   0.00000000000000E+00   0.00000000000000E+00   0.00000000000000E+00
      1.04440648805815E-14  -9.00000000000000E-01  -9.00000000000000E-01   0.00000000000000E+00   0.00000000000000E+00
      2.23624623514743E-17   1.82137672517441E-34   2.23624623514743E-17  -1.43150563405709E-14   1.80000000000000E+00
      1.80000000000000E+00   0.00000000000000E+00   0.00000000000000E+00   9.48810237124282E-05  -1.49217640694234E-51
      9.48810237124282E-05   2.75411608476181E-15
      1.00000000000000E+00
      0.00000000000000E+00   0.00000000000000E+00   0.00000000000000E+00   0.00000000000000E+00  -1.14733120461978E-04
     -1.53276073659430E-34  -1.14733120461978E-04   1.09252109297633E-15   1.80000000000000E+00   1.80000000000000E+00
      0.00000000000000E+00   0.00000000000000E+00   0.00000000000000E+00   0.00000000000000E+00   0.00000000000000E+00
      1.12178661963917E-14  -9.00000000000000E-01  -9.00000000000000E-01   0.00000000000000E+00   0.00000000000000E+00
      1.88858264712722E-15   1.53276073659430E-34   1.88858264712722E-15  -1.50076930239226E-14   1.80000000000000E+00
      1.80000000000000E+00   0.00000000000000E+00   0.00000000000000E+00   1.14733120460090E-04  -1.94774562825225E-52
      1.14733120460090E-04   2.69730573455452E-15
}
