DF-ISE text

Info {
  version   = 1.0
  type      = xyplot
  datasets  = [
    "time"
    "source OuterVoltage" "source InnerVoltage" "source QuasiFermiPotential" "source DisplacementCurrent" "source eCurrent"
    "source hCurrent" "source TotalCurrent" "source Charge" "gate OuterVoltage" "gate InnerVoltage"
    "gate QuasiFermiPotential" "gate DisplacementCurrent" "gate eCurrent" "gate hCurrent" "gate TotalCurrent"
    "gate Charge" "substrate OuterVoltage" "substrate InnerVoltage" "substrate QuasiFermiPotential" "substrate DisplacementCurrent"
    "substrate eCurrent" "substrate hCurrent" "substrate TotalCurrent" "substrate Charge" "drain OuterVoltage"
    "drain InnerVoltage" "drain QuasiFermiPotential" "drain DisplacementCurrent" "drain eCurrent" "drain hCurrent"
    "drain TotalCurrent" "drain Charge" ]
  functions = [
    Time
    OuterVoltage InnerVoltage QuasiFermiPotential DisplacementCurrent eCurrent
    hCurrent TotalCurrent Charge OuterVoltage InnerVoltage
    QuasiFermiPotential DisplacementCurrent eCurrent hCurrent TotalCurrent
    Charge OuterVoltage InnerVoltage QuasiFermiPotential DisplacementCurrent
    eCurrent hCurrent TotalCurrent Charge OuterVoltage
    InnerVoltage QuasiFermiPotential DisplacementCurrent eCurrent hCurrent
    TotalCurrent Charge ]
}

Data {
      5.00000000000000E-02
      0.00000000000000E+00   0.00000000000000E+00   0.00000000000000E+00   0.00000000000000E+00  -1.93206497360077E-14
      3.13874851677192E-30  -1.93206497360077E-14   1.52036474677741E-15   9.00000000000000E-02   9.00000000000000E-02
      0.00000000000000E+00   0.00000000000000E+00   0.00000000000000E+00   0.00000000000000E+00   0.00000000000000E+00
      5.34239320763442E-16  -4.50000000000000E-01  -4.50000000000000E-01   0.00000000000000E+00   0.00000000000000E+00
      2.08151265015325E-14  -3.47529450922185E-30   2.08151265015325E-14  -3.63718473283298E-15   5.00000000000000E-02
      5.00000000000000E-02   0.00000000000000E+00   0.00000000000000E+00  -1.49447676552488E-15   3.36545992449929E-31
     -1.49447676552488E-15   1.58258066529213E-15
      1.00000000000000E-01
      0.00000000000000E+00   0.00000000000000E+00   0.00000000000000E+00   0.00000000000000E+00   5.31734064456264E-15
      6.68775271978282E-31   5.31734064456264E-15   1.46265204941440E-15   1.80000000000000E-01   1.80000000000000E-01
      0.00000000000000E+00   0.00000000000000E+00   0.00000000000000E+00   0.00000000000000E+00   0.00000000000000E+00
      7.03892617686840E-16  -4.50000000000000E-01  -4.50000000000000E-01   0.00000000000000E+00   0.00000000000000E+00
     -6.73533096231964E-15  -7.86368675214172E-31  -6.73533096231964E-15  -3.69200775804667E-15   5.00000000000000E-02
      5.00000000000000E-02   0.00000000000000E+00   0.00000000000000E+00   1.41799031775700E-15   1.17593403235888E-31
      1.41799031775700E-15   1.52546309094543E-15
      1.50000000000000E-01
      0.00000000000000E+00   0.00000000000000E+00   0.00000000000000E+00   0.00000000000000E+00  -1.47646558410393E-14
      5.07610850189771E-30  -1.47646558410393E-14   1.40415724204620E-15   2.70000000000000E-01   2.70000000000000E-01
      0.00000000000000E+00   0.00000000000000E+00   0.00000000000000E+00   0.00000000000000E+00   0.00000000000000E+00
      8.74476711431758E-16  -4.50000000000000E-01  -4.50000000000000E-01   0.00000000000000E+00   0.00000000000000E+00
     -1.49414755271963E-14  -5.63687421023224E-30  -1.49414755271963E-14  -3.74596875198515E-15   5.00000000000000E-02
      5.00000000000000E-02   0.00000000000000E+00   0.00000000000000E+00   2.97061313682356E-14   5.60765708334527E-31
      2.97061313682356E-14   1.46733479850719E-15
      2.00000000000000E-01
      0.00000000000000E+00   0.00000000000000E+00   0.00000000000000E+00   0.00000000000000E+00  -3.38939992151660E-13
      2.50115078443868E-30  -3.38939992151660E-13   1.34628726086254E-15   3.60000000000000E-01   3.60000000000000E-01
      0.00000000000000E+00   0.00000000000000E+00   0.00000000000000E+00   0.00000000000000E+00   0.00000000000000E+00
      1.04809529660658E-15  -4.50000000000000E-01  -4.50000000000000E-01   0.00000000000000E+00   0.00000000000000E+00
     -3.16524215670753E-19  -2.73819910297854E-30  -3.16524215673491E-19  -3.80323264078982E-15   5.00000000000000E-02
      5.00000000000000E-02   0.00000000000000E+00   0.00000000000000E+00   3.38940308675876E-13   2.37048318539863E-31
      3.38940308675876E-13   1.40885008332069E-15
      2.50000000000000E-01
      0.00000000000000E+00   0.00000000000000E+00   0.00000000000000E+00   0.00000000000000E+00  -6.58577515413111E-12
      4.04731134209443E-30  -6.58577515413111E-12   1.29265128058105E-15   4.50000000000000E-01   4.50000000000000E-01
      0.00000000000000E+00   0.00000000000000E+00   0.00000000000000E+00   0.00000000000000E+00   0.00000000000000E+00
      1.23015476365403E-15  -4.50000000000000E-01  -4.50000000000000E-01   0.00000000000000E+00   0.00000000000000E+00
      4.41420534837524E-18  -5.16008568341003E-30   4.41420534837008E-18  -3.87513394139071E-15   5.00000000000000E-02
      5.00000000000000E-02   0.00000000000000E+00   0.00000000000000E+00   6.58577073992577E-12   1.11277434131560E-30
      6.58577073992577E-12   1.35232789715564E-15
      3.00000000000000E-01
      0.00000000000000E+00   0.00000000000000E+00   0.00000000000000E+00   0.00000000000000E+00  -1.30130935393260E-10
      4.48528385657211E-30  -1.30130935393260E-10   1.24687375678940E-15   5.40000000000000E-01   5.40000000000000E-01
      0.00000000000000E+00   0.00000000000000E+00   0.00000000000000E+00   0.00000000000000E+00   0.00000000000000E+00
      1.42830616627777E-15  -4.50000000000000E-01  -4.50000000000000E-01   0.00000000000000E+00   0.00000000000000E+00
     -1.95377844565061E-15  -5.30329434357328E-30  -1.95377844565061E-15  -3.97711751215400E-15   5.00000000000000E-02
      5.00000000000000E-02   0.00000000000000E+00   0.00000000000000E+00   1.30132889171706E-10   8.18010487001163E-31
      1.30132889171706E-10   1.30193758908683E-15
      3.50000000000000E-01
      0.00000000000000E+00   0.00000000000000E+00   0.00000000000000E+00   0.00000000000000E+00  -2.59062680431663E-09
      4.34049513371795E-30  -2.59062680431663E-09   1.20912475898010E-15   6.30000000000000E-01   6.30000000000000E-01
      0.00000000000000E+00   0.00000000000000E+00   0.00000000000000E+00   0.00000000000000E+00   0.00000000000000E+00
      1.64822721342021E-15  -4.50000000000000E-01  -4.50000000000000E-01   0.00000000000000E+00   0.00000000000000E+00
     -3.17070646259681E-12  -6.78808176564460E-30  -3.17070646259681E-12  -4.11723390519295E-15   5.00000000000000E-02
      5.00000000000000E-02   0.00000000000000E+00   0.00000000000000E+00   2.59379751077923E-09   2.44758663192664E-30
      2.59379751077923E-09   1.25988193279264E-15
      4.00000000000000E-01
      0.00000000000000E+00   0.00000000000000E+00   0.00000000000000E+00   0.00000000000000E+00  -4.99745720261495E-08
      4.46075463688892E-30  -4.99745720261495E-08   1.17780439204619E-15   7.20000000000000E-01   7.20000000000000E-01
      0.00000000000000E+00   0.00000000000000E+00   0.00000000000000E+00   0.00000000000000E+00   0.00000000000000E+00
      1.89734787572583E-15  -4.50000000000000E-01  -4.50000000000000E-01   0.00000000000000E+00   0.00000000000000E+00
      9.64462304762342E-19  -6.07836706403378E-30   9.64462304756264E-19  -4.30031570409527E-15   5.00000000000000E-02
      5.00000000000000E-02   0.00000000000000E+00   0.00000000000000E+00   4.99745720251850E-08   1.61761242714486E-30
      4.99745720251850E-08   1.22516343632325E-15
      4.50000000000000E-01
      0.00000000000000E+00   0.00000000000000E+00   0.00000000000000E+00   0.00000000000000E+00  -6.53177431997616E-07
      5.03233257317050E-30  -6.53177431997616E-07   1.15117808372126E-15   8.10000000000000E-01   8.10000000000000E-01
      0.00000000000000E+00   0.00000000000000E+00   0.00000000000000E+00   0.00000000000000E+00   0.00000000000000E+00
      2.20383120999376E-15  -4.50000000000000E-01  -4.50000000000000E-01   0.00000000000000E+00   0.00000000000000E+00
     -3.27184075321198E-18  -7.00377307806272E-30  -3.27184075321899E-18  -4.55110289968418E-15   5.00000000000000E-02
      5.00000000000000E-02   0.00000000000000E+00   0.00000000000000E+00   6.53177432000888E-07   1.97144050489222E-30
      6.53177432000888E-07   1.19609360596915E-15
      5.00000000000000E-01
      0.00000000000000E+00   0.00000000000000E+00   0.00000000000000E+00   0.00000000000000E+00  -2.89447033486458E-06
      3.88005865556003E-30  -2.89447033486458E-06   1.12760735335268E-15   9.00000000000000E-01   9.00000000000000E-01
      0.00000000000000E+00   0.00000000000000E+00   0.00000000000000E+00   0.00000000000000E+00   0.00000000000000E+00
      2.61109304870221E-15  -4.50000000000000E-01  -4.50000000000000E-01   0.00000000000000E+00   0.00000000000000E+00
     -1.52620737261110E-14  -5.87949414553704E-30  -1.52620737261110E-14  -4.90968941559987E-15   5.00000000000000E-02
      5.00000000000000E-02   0.00000000000000E+00   0.00000000000000E+00   2.89447035012665E-06   1.99943548997701E-30
      2.89447035012665E-06   1.17098901354498E-15
      5.50000000000000E-01
      0.00000000000000E+00   0.00000000000000E+00   0.00000000000000E+00   0.00000000000000E+00  -6.00785465466705E-06
      2.71536071319431E-30  -6.00785465466705E-06   1.10593616772652E-15   9.90000000000000E-01   9.90000000000000E-01
      0.00000000000000E+00   0.00000000000000E+00   0.00000000000000E+00   0.00000000000000E+00   0.00000000000000E+00
      3.09149734748381E-15  -4.50000000000000E-01  -4.50000000000000E-01   0.00000000000000E+00   0.00000000000000E+00
      7.15321621930481E-18  -3.64270842339769E-30   7.15321621930117E-18  -5.34576625590880E-15   5.00000000000000E-02
      5.00000000000000E-02   0.00000000000000E+00   0.00000000000000E+00   6.00785465465991E-06   9.27347710203380E-31
      6.00785465465991E-06   1.14833274069847E-15
      6.00000000000000E-01
      0.00000000000000E+00   0.00000000000000E+00   0.00000000000000E+00   0.00000000000000E+00  -9.24737526891819E-06
      6.87310496953686E-30  -9.24737526891819E-06   1.08552635223624E-15   1.08000000000000E+00   1.08000000000000E+00
      0.00000000000000E+00   0.00000000000000E+00   0.00000000000000E+00   0.00000000000000E+00   0.00000000000000E+00
      3.60428831680338E-15  -4.50000000000000E-01  -4.50000000000000E-01   0.00000000000000E+00   0.00000000000000E+00
     -8.10386936498202E-16  -7.77328851364864E-30  -8.10386936498209E-16  -5.81702728706905E-15   5.00000000000000E-02
      5.00000000000000E-02   0.00000000000000E+00   0.00000000000000E+00   9.24737526972859E-06   9.00183544111770E-31
      9.24737526972859E-06   1.12721261802944E-15
      6.50000000000000E-01
      0.00000000000000E+00   0.00000000000000E+00   0.00000000000000E+00   0.00000000000000E+00  -1.24414044651657E-05
      5.11409843429913E-30  -1.24414044651657E-05   1.06601689594822E-15   1.17000000000000E+00   1.17000000000000E+00
      0.00000000000000E+00   0.00000000000000E+00   0.00000000000000E+00   0.00000000000000E+00   0.00000000000000E+00
      4.13292061227790E-15  -4.50000000000000E-01  -4.50000000000000E-01   0.00000000000000E+00   0.00000000000000E+00
      1.98632462282416E-18  -7.18624004096091E-30   1.98632462281697E-18  -6.30609038677450E-15   5.00000000000000E-02
      5.00000000000000E-02   0.00000000000000E+00   0.00000000000000E+00   1.24414044651637E-05   2.07214160666178E-30
      1.24414044651637E-05   1.10715287854838E-15
      7.00000000000000E-01
      0.00000000000000E+00   0.00000000000000E+00   0.00000000000000E+00   0.00000000000000E+00  -1.55547580080956E-05
      6.25034935753907E-30  -1.55547580080956E-05   1.04718342283673E-15   1.26000000000000E+00   1.26000000000000E+00
      0.00000000000000E+00   0.00000000000000E+00   0.00000000000000E+00   0.00000000000000E+00   0.00000000000000E+00
      4.67072388120109E-15  -4.50000000000000E-01  -4.50000000000000E-01   0.00000000000000E+00   0.00000000000000E+00
     -1.67899302837445E-18  -7.85587086213128E-30  -1.67899302838231E-18  -6.80578036949999E-15   5.00000000000000E-02
      5.00000000000000E-02   0.00000000000000E+00   0.00000000000000E+00   1.55547580080972E-05   1.60552150459221E-30
      1.55547580080972E-05   1.08787306546215E-15
      7.50000000000000E-01
      0.00000000000000E+00   0.00000000000000E+00   0.00000000000000E+00   0.00000000000000E+00  -1.85824562268158E-05
      4.25403797632816E-30  -1.85824562268158E-05   1.02887606527705E-15   1.35000000000000E+00   1.35000000000000E+00
      0.00000000000000E+00   0.00000000000000E+00   0.00000000000000E+00   0.00000000000000E+00   0.00000000000000E+00
      5.21448436338332E-15  -4.50000000000000E-01  -4.50000000000000E-01   0.00000000000000E+00   0.00000000000000E+00
     -8.11444576364194E-18  -5.47428817382934E-30  -8.11444576364742E-18  -7.31255187232488E-15   5.00000000000000E-02
      5.00000000000000E-02   0.00000000000000E+00   0.00000000000000E+00   1.85824562268240E-05   1.22025019750117E-30
      1.85824562268240E-05   1.06919144366450E-15
      8.00000000000000E-01
      0.00000000000000E+00   0.00000000000000E+00   0.00000000000000E+00   0.00000000000000E+00  -2.15272542903776E-05
      5.48575995504199E-30  -2.15272542903776E-05   1.01098950434856E-15   1.44000000000000E+00   1.44000000000000E+00
      0.00000000000000E+00   0.00000000000000E+00   0.00000000000000E+00   0.00000000000000E+00   0.00000000000000E+00
      5.76242439675736E-15  -4.50000000000000E-01  -4.50000000000000E-01   0.00000000000000E+00   0.00000000000000E+00
      5.04796272913045E-18  -6.79402358900686E-30   5.04796272912366E-18  -7.82439684051688E-15   5.00000000000000E-02
      5.00000000000000E-02   0.00000000000000E+00   0.00000000000000E+00   2.15272542903725E-05   1.30826363396486E-30
      2.15272542903725E-05   1.05098293941097E-15
      8.50000000000000E-01
      0.00000000000000E+00   0.00000000000000E+00   0.00000000000000E+00   0.00000000000000E+00  -2.43938375390915E-05
      5.61612948914306E-30  -2.43938375390915E-05   9.93446863029851E-16   1.53000000000000E+00   1.53000000000000E+00
      0.00000000000000E+00   0.00000000000000E+00   0.00000000000000E+00   0.00000000000000E+00   0.00000000000000E+00
      6.31345978934460E-15  -4.50000000000000E-01  -4.50000000000000E-01   0.00000000000000E+00   0.00000000000000E+00
     -7.41060154972778E-12  -6.21201076775892E-30  -7.41060154972778E-12  -8.34006435664798E-15   5.00000000000000E-02
      5.00000000000000E-02   0.00000000000000E+00   0.00000000000000E+00   2.43938449496931E-05   5.95881278615858E-31
      2.43938449496931E-05   1.03315770427352E-15
      9.00000000000000E-01
      0.00000000000000E+00   0.00000000000000E+00   0.00000000000000E+00   0.00000000000000E+00  -2.71871425475809E-05
      4.66897704086803E-30  -2.71871425475809E-05   9.76190323748839E-16   1.62000000000000E+00   1.62000000000000E+00
      0.00000000000000E+00   0.00000000000000E+00   0.00000000000000E+00   0.00000000000000E+00   0.00000000000000E+00
      6.86688071604661E-15  -4.50000000000000E-01  -4.50000000000000E-01   0.00000000000000E+00   0.00000000000000E+00
     -3.94377303057840E-12  -6.40623166263811E-30  -3.94377303057840E-12  -8.85872007109471E-15   5.00000000000000E-02
      5.00000000000000E-02   0.00000000000000E+00   0.00000000000000E+00   2.71871464913539E-05   1.73725462177007E-30
      2.71871464913539E-05   1.01564903129925E-15
      9.50000000000000E-01
      0.00000000000000E+00   0.00000000000000E+00   0.00000000000000E+00   0.00000000000000E+00  -2.99117882384555E-05
      4.88411052099056E-30  -2.99117882384555E-05   9.59175331626356E-16   1.71000000000000E+00   1.71000000000000E+00
      0.00000000000000E+00   0.00000000000000E+00   0.00000000000000E+00   0.00000000000000E+00   0.00000000000000E+00
      7.42219699903279E-15  -4.50000000000000E-01  -4.50000000000000E-01   0.00000000000000E+00   0.00000000000000E+00
     -2.19544632501340E-12  -5.78435326840519E-30  -2.19544632501340E-12  -9.37977839329084E-15   5.00000000000000E-02
      5.00000000000000E-02   0.00000000000000E+00   0.00000000000000E+00   2.99117904339019E-05   9.00242747414632E-31
      2.99117904339019E-05   9.98406062631703E-16
      1.00000000000000E+00
      0.00000000000000E+00   0.00000000000000E+00   0.00000000000000E+00   0.00000000000000E+00  -3.25719100569024E-05
      6.81715030980159E-30  -3.25719100569024E-05   9.42366868428544E-16   1.80000000000000E+00   1.80000000000000E+00
      0.00000000000000E+00   0.00000000000000E+00   0.00000000000000E+00   0.00000000000000E+00   0.00000000000000E+00
      7.97905553947133E-15  -4.50000000000000E-01  -4.50000000000000E-01   0.00000000000000E+00   0.00000000000000E+00
     -1.27143727437836E-12  -8.64712381485350E-30  -1.27143727437836E-12  -9.90281156813418E-15   5.00000000000000E-02
      5.00000000000000E-02   0.00000000000000E+00   0.00000000000000E+00   3.25719113283397E-05   1.82997350505191E-30
      3.25719113283397E-05   9.81389160234312E-16
}
