DF-ISE text

Info {
  version   = 1.0
  type      = xyplot
  datasets  = [
    "time"
    "source OuterVoltage" "source InnerVoltage" "source QuasiFermiPotential" "source DisplacementCurrent" "source eCurrent"
    "source hCurrent" "source TotalCurrent" "source Charge" "gate OuterVoltage" "gate InnerVoltage"
    "gate QuasiFermiPotential" "gate DisplacementCurrent" "gate eCurrent" "gate hCurrent" "gate TotalCurrent"
    "gate Charge" "substrate OuterVoltage" "substrate InnerVoltage" "substrate QuasiFermiPotential" "substrate DisplacementCurrent"
    "substrate eCurrent" "substrate hCurrent" "substrate TotalCurrent" "substrate Charge" "drain OuterVoltage"
    "drain InnerVoltage" "drain QuasiFermiPotential" "drain DisplacementCurrent" "drain eCurrent" "drain hCurrent"
    "drain TotalCurrent" "drain Charge" ]
  functions = [
    Time
    OuterVoltage InnerVoltage QuasiFermiPotential DisplacementCurrent eCurrent
    hCurrent TotalCurrent Charge OuterVoltage InnerVoltage
    QuasiFermiPotential DisplacementCurrent eCurrent hCurrent TotalCurrent
    Charge OuterVoltage InnerVoltage QuasiFermiPotential DisplacementCurrent
    eCurrent hCurrent TotalCurrent Charge OuterVoltage
    InnerVoltage QuasiFermiPotential DisplacementCurrent eCurrent hCurrent
    TotalCurrent Charge ]
}

Data {
      5.00000000000000E-02
      0.00000000000000E+00   0.00000000000000E+00   0.00000000000000E+00   0.00000000000000E+00  -1.98110965780971E-14
     -1.15211147109825E-25  -1.98110965782123E-14   1.22072659796571E-15   9.00000000000000E-02   9.00000000000000E-02
      0.00000000000000E+00   0.00000000000000E+00   0.00000000000000E+00   0.00000000000000E+00   0.00000000000000E+00
     -6.88388848036283E-16   0.00000000000000E+00   0.00000000000000E+00   0.00000000000000E+00   0.00000000000000E+00
      1.80019497139242E-14   1.15211197950394E-25   1.80019497140394E-14  -3.72113372829244E-15   1.80000000000000E+00
      1.80000000000000E+00   0.00000000000000E+00   0.00000000000000E+00   1.80914686417284E-15  -5.08405686194028E-32
      1.80914686417284E-15   3.18879597836303E-15
      1.00000000000000E-01
      0.00000000000000E+00   0.00000000000000E+00   0.00000000000000E+00   0.00000000000000E+00  -2.27695828960134E-14
     -1.10485101037371E-25  -2.27695828961239E-14   1.16308080284358E-15   1.80000000000000E-01   1.80000000000000E-01
      0.00000000000000E+00   0.00000000000000E+00   0.00000000000000E+00   0.00000000000000E+00   0.00000000000000E+00
     -5.18474702527348E-16   0.00000000000000E+00   0.00000000000000E+00   0.00000000000000E+00   0.00000000000000E+00
     -4.39771741872881E-15   1.10485104221561E-25  -4.39771741861832E-15  -3.79447703133037E-15   1.80000000000000E+00
      1.80000000000000E+00   0.00000000000000E+00   0.00000000000000E+00   2.71673003147422E-14  -3.18418990877386E-33
      2.71673003147422E-14   3.14987093101414E-15
      1.50000000000000E-01
      0.00000000000000E+00   0.00000000000000E+00   0.00000000000000E+00   0.00000000000000E+00  -4.27317104806484E-13
     -1.06174878638491E-25  -4.27317104806590E-13   1.10447258954130E-15   2.70000000000000E-01   2.70000000000000E-01
      0.00000000000000E+00   0.00000000000000E+00   0.00000000000000E+00   0.00000000000000E+00   0.00000000000000E+00
     -3.51004252388397E-16   0.00000000000000E+00   0.00000000000000E+00   0.00000000000000E+00   0.00000000000000E+00
     -1.32451038989634E-15   1.06174878756984E-25  -1.32451038979017E-15  -3.86383943667287E-15   1.80000000000000E+00
      1.80000000000000E+00   0.00000000000000E+00   0.00000000000000E+00   4.28641615196380E-13  -1.18493252551631E-34
      4.28641615196380E-13   3.11037109951997E-15
      2.00000000000000E-01
      0.00000000000000E+00   0.00000000000000E+00   0.00000000000000E+00   0.00000000000000E+00  -7.09599177100511E-12
     -1.12434986405391E-25  -7.09599177100523E-12   1.04641541515255E-15   3.60000000000000E-01   3.60000000000000E-01
      0.00000000000000E+00   0.00000000000000E+00   0.00000000000000E+00   0.00000000000000E+00   0.00000000000000E+00
     -1.84278330043023E-16   0.00000000000000E+00   0.00000000000000E+00   0.00000000000000E+00   0.00000000000000E+00
     -7.75713111766208E-19   1.12434986421393E-25  -7.75712999331222E-19  -3.93233814821490E-15   1.80000000000000E+00
      1.80000000000000E+00   0.00000000000000E+00   0.00000000000000E+00   7.09599254671822E-12  -1.60020647984122E-35
      7.09599254671822E-12   3.07020106310537E-15
      2.50000000000000E-01
      0.00000000000000E+00   0.00000000000000E+00   0.00000000000000E+00   0.00000000000000E+00  -1.22376335293448E-10
     -8.10632632118028E-26  -1.22376335293448E-10   9.92633870439200E-16   4.50000000000000E-01   4.50000000000000E-01
      0.00000000000000E+00   0.00000000000000E+00   0.00000000000000E+00   0.00000000000000E+00   0.00000000000000E+00
     -1.43104083161798E-17   0.00000000000000E+00   0.00000000000000E+00   0.00000000000000E+00   0.00000000000000E+00
      1.13954778117529E-18   8.10632632126556E-26   1.13954786223856E-18  -4.00766416028427E-15   1.80000000000000E+00
      1.80000000000000E+00   0.00000000000000E+00   0.00000000000000E+00   1.22376334153901E-10  -8.52785686132658E-37
      1.22376334153901E-10   3.02934069816126E-15
      3.00000000000000E-01
      0.00000000000000E+00   0.00000000000000E+00   0.00000000000000E+00   0.00000000000000E+00  -2.16985906138822E-09
     -1.01700991559241E-25  -2.16985906138822E-09   9.46841878505478E-16   5.40000000000000E-01   5.40000000000000E-01
      0.00000000000000E+00   0.00000000000000E+00   0.00000000000000E+00   0.00000000000000E+00   0.00000000000000E+00
      1.64092816399904E-16   0.00000000000000E+00   0.00000000000000E+00   0.00000000000000E+00   0.00000000000000E+00
     -7.41205831047536E-15   1.01700991559256E-25  -7.41205831037366E-15  -4.09874113336213E-15   1.80000000000000E+00
      1.80000000000000E+00   0.00000000000000E+00   0.00000000000000E+00   2.16986647344653E-09  -1.52968277273575E-38
      2.16986647344653E-09   2.98780643845675E-15
      3.50000000000000E-01
      0.00000000000000E+00   0.00000000000000E+00   0.00000000000000E+00   0.00000000000000E+00  -3.84623068145932E-08
     -9.34478766412707E-26  -3.84623068145932E-08   9.09450705514982E-16   6.30000000000000E-01   6.30000000000000E-01
      0.00000000000000E+00   0.00000000000000E+00   0.00000000000000E+00   0.00000000000000E+00   0.00000000000000E+00
      3.56085518015875E-16   0.00000000000000E+00   0.00000000000000E+00   0.00000000000000E+00   0.00000000000000E+00
     -8.85188250128913E-19   9.34478766412769E-26  -8.85188156681036E-19  -4.21112881152828E-15   1.80000000000000E+00
      1.80000000000000E+00   0.00000000000000E+00   0.00000000000000E+00   3.84623068154784E-08  -6.19754539291765E-39
      3.84623068154784E-08   2.94559258799742E-15
      4.00000000000000E-01
      0.00000000000000E+00   0.00000000000000E+00   0.00000000000000E+00   0.00000000000000E+00  -5.52897531898621E-07
     -9.54254344347790E-26  -5.52897531898621E-07   8.78822826756421E-16   7.20000000000000E-01   7.20000000000000E-01
      0.00000000000000E+00   0.00000000000000E+00   0.00000000000000E+00   0.00000000000000E+00   0.00000000000000E+00
      5.77540987246898E-16   0.00000000000000E+00   0.00000000000000E+00   0.00000000000000E+00   0.00000000000000E+00
      5.17259048859362E-18   9.54254344347793E-26   5.17259058401906E-18  -4.35892023561551E-15   1.80000000000000E+00
      1.80000000000000E+00   0.00000000000000E+00   0.00000000000000E+00   5.52897531893449E-07  -2.79101958022081E-40
      5.52897531893449E-07   2.90255642161219E-15
      4.50000000000000E-01
      0.00000000000000E+00   0.00000000000000E+00   0.00000000000000E+00   0.00000000000000E+00  -3.65665261301065E-06
     -1.11383592291895E-25  -3.65665261301065E-06   8.52738957520075E-16   8.10000000000000E-01   8.10000000000000E-01
      0.00000000000000E+00   0.00000000000000E+00   0.00000000000000E+00   0.00000000000000E+00   0.00000000000000E+00
      8.55457571912385E-16   0.00000000000000E+00   0.00000000000000E+00   0.00000000000000E+00   0.00000000000000E+00
     -6.56669415100006E-18   1.11383592291895E-25  -6.56669403961647E-18  -4.56626926730782E-15   1.80000000000000E+00
      1.80000000000000E+00   0.00000000000000E+00   0.00000000000000E+00   3.65665261301722E-06  -3.87268332077652E-41
      3.65665261301722E-06   2.85807273787536E-15
      5.00000000000000E-01
      0.00000000000000E+00   0.00000000000000E+00   0.00000000000000E+00   0.00000000000000E+00  -1.14734341192499E-05
     -9.56722500652661E-26  -1.14734341192499E-05   8.29450306154691E-16   9.00000000000000E-01   9.00000000000000E-01
      0.00000000000000E+00   0.00000000000000E+00   0.00000000000000E+00   0.00000000000000E+00   0.00000000000000E+00
      1.17797418933996E-15   0.00000000000000E+00   0.00000000000000E+00   0.00000000000000E+00   0.00000000000000E+00
     -6.96174366954623E-18   9.56722500652661E-26  -6.96174357387398E-18  -4.81892111179232E-15   1.80000000000000E+00
      1.80000000000000E+00   0.00000000000000E+00   0.00000000000000E+00   1.14734341192569E-05  -3.54842820683439E-42
      1.14734341192569E-05   2.81149661629768E-15
      5.50000000000000E-01
      0.00000000000000E+00   0.00000000000000E+00   0.00000000000000E+00   0.00000000000000E+00  -2.42495692838769E-05
     -7.65926674148071E-26  -2.42495692838769E-05   8.07990182343865E-16   9.90000000000000E-01   9.90000000000000E-01
      0.00000000000000E+00   0.00000000000000E+00   0.00000000000000E+00   0.00000000000000E+00   0.00000000000000E+00
      1.52548632721029E-15   0.00000000000000E+00   0.00000000000000E+00   0.00000000000000E+00   0.00000000000000E+00
      3.28380187398071E-16   7.65926674148072E-26   3.28380187474664E-16  -5.09616993779449E-15   1.80000000000000E+00
      1.80000000000000E+00   0.00000000000000E+00   0.00000000000000E+00   2.42495692835485E-05  -1.14897550083803E-43
      2.42495692835485E-05   2.76269342824034E-15
      6.00000000000000E-01
      0.00000000000000E+00   0.00000000000000E+00   0.00000000000000E+00   0.00000000000000E+00  -4.15300359809056E-05
     -1.02581455009626E-25  -4.15300359809056E-05   7.87819773554674E-16   1.08000000000000E+00   1.08000000000000E+00
      0.00000000000000E+00   0.00000000000000E+00   0.00000000000000E+00   0.00000000000000E+00   0.00000000000000E+00
      1.88951543127577E-15   0.00000000000000E+00   0.00000000000000E+00   0.00000000000000E+00   0.00000000000000E+00
     -9.30800430158188E-18   1.02581455009626E-25  -9.30800419900043E-18  -5.38908057149399E-15   1.80000000000000E+00
      1.80000000000000E+00   0.00000000000000E+00   0.00000000000000E+00   4.15300359809149E-05  -4.12396472089944E-43
      4.15300359809149E-05   2.71174536666354E-15
      6.50000000000000E-01
      0.00000000000000E+00   0.00000000000000E+00   0.00000000000000E+00   0.00000000000000E+00  -6.27748625744967E-05
     -8.05340262361841E-26  -6.27748625744967E-05   7.68608127720278E-16   1.17000000000000E+00   1.17000000000000E+00
      0.00000000000000E+00   0.00000000000000E+00   0.00000000000000E+00   0.00000000000000E+00   0.00000000000000E+00
      2.26618254552339E-15   0.00000000000000E+00   0.00000000000000E+00   0.00000000000000E+00   0.00000000000000E+00
     -2.09774710851426E-18   8.05340262361840E-26  -2.09774702798023E-18  -5.69367937440922E-15   1.80000000000000E+00
      1.80000000000000E+00   0.00000000000000E+00   0.00000000000000E+00   6.27748625744988E-05   5.19982439510267E-44
      6.27748625744988E-05   2.65888870116554E-15
      7.00000000000000E-01
      0.00000000000000E+00   0.00000000000000E+00   0.00000000000000E+00   0.00000000000000E+00  -8.74892638921453E-05
     -8.21550105257126E-26  -8.74892638921453E-05   7.50137052863136E-16   1.26000000000000E+00   1.26000000000000E+00
      0.00000000000000E+00   0.00000000000000E+00   0.00000000000000E+00   0.00000000000000E+00   0.00000000000000E+00
      2.65331110284717E-15   0.00000000000000E+00   0.00000000000000E+00   0.00000000000000E+00   0.00000000000000E+00
      1.73070963313904E-18   8.21550105257126E-26   1.73070971529405E-18  -6.00799350956367E-15   1.80000000000000E+00
      1.80000000000000E+00   0.00000000000000E+00   0.00000000000000E+00   8.74892638921436E-05  -1.47141678098954E-44
      8.74892638921436E-05   2.60454535385337E-15
      7.50000000000000E-01
      0.00000000000000E+00   0.00000000000000E+00   0.00000000000000E+00   0.00000000000000E+00  -1.15245142833829E-04
     -6.79719762798063E-26  -1.15245142833829E-04   7.32255105637884E-16   1.35000000000000E+00   1.35000000000000E+00
      0.00000000000000E+00   0.00000000000000E+00   0.00000000000000E+00   0.00000000000000E+00   0.00000000000000E+00
      3.04926183791508E-15   0.00000000000000E+00   0.00000000000000E+00   0.00000000000000E+00   0.00000000000000E+00
     -7.25139557991415E-18   6.79719762798063E-26  -7.25139551194217E-18  -6.33073259422389E-15   1.80000000000000E+00
      1.80000000000000E+00   0.00000000000000E+00   0.00000000000000E+00   1.15245142833836E-04   1.18119582563290E-43
      1.15245142833836E-04   2.54921565067093E-15
      8.00000000000000E-01
      0.00000000000000E+00   0.00000000000000E+00   0.00000000000000E+00   0.00000000000000E+00  -1.45677210340730E-04
     -9.13144197444784E-26  -1.45677210340730E-04   7.14852874293007E-16   1.44000000000000E+00   1.44000000000000E+00
      0.00000000000000E+00   0.00000000000000E+00   0.00000000000000E+00   0.00000000000000E+00   0.00000000000000E+00
      3.45281633418031E-15   0.00000000000000E+00   0.00000000000000E+00   0.00000000000000E+00   0.00000000000000E+00
     -4.78561813269243E-18   9.13144197444784E-26  -4.78561804137801E-18  -6.66101471815792E-15   1.80000000000000E+00
      1.80000000000000E+00   0.00000000000000E+00   0.00000000000000E+00   1.45677210340734E-04   1.96501098881095E-42
      1.45677210340734E-04   2.49334550968461E-15
      8.50000000000000E-01
      0.00000000000000E+00   0.00000000000000E+00   0.00000000000000E+00   0.00000000000000E+00  -1.78475780024150E-04
     -6.97559733759137E-26  -1.78475780024150E-04   6.97848782079253E-16   1.53000000000000E+00   1.53000000000000E+00
      0.00000000000000E+00   0.00000000000000E+00   0.00000000000000E+00   0.00000000000000E+00   0.00000000000000E+00
      3.86307488041747E-15   0.00000000000000E+00   0.00000000000000E+00   0.00000000000000E+00   0.00000000000000E+00
     -1.46682638290074E-17   6.97559733759137E-26  -1.46682637592514E-17  -6.99816433305354E-15   1.80000000000000E+00
      1.80000000000000E+00   0.00000000000000E+00   0.00000000000000E+00   1.78475780024164E-04   9.05001352034101E-43
      1.78475780024164E-04   2.43724067055682E-15
      9.00000000000000E-01
      0.00000000000000E+00   0.00000000000000E+00   0.00000000000000E+00   0.00000000000000E+00  -2.13379991068637E-04
     -8.26100090733066E-26  -2.13379991068637E-04   6.81180428397782E-16   1.62000000000000E+00   1.62000000000000E+00
      0.00000000000000E+00   0.00000000000000E+00   0.00000000000000E+00   0.00000000000000E+00   0.00000000000000E+00
      4.27935373416147E-15   0.00000000000000E+00   0.00000000000000E+00   0.00000000000000E+00   0.00000000000000E+00
      4.47085188684477E-18   8.26100090733065E-26   4.47085196945478E-18  -7.34160152500000E-15   1.80000000000000E+00
      1.80000000000000E+00   0.00000000000000E+00   0.00000000000000E+00   2.13379991068632E-04   2.60693880996551E-42
      2.13379991068632E-04   2.38106736244076E-15
      9.50000000000000E-01
      0.00000000000000E+00   0.00000000000000E+00   0.00000000000000E+00   0.00000000000000E+00  -2.50160926647652E-04
     -8.32726534654457E-26  -2.50160926647652E-04   6.64799103425529E-16   1.71000000000000E+00   1.71000000000000E+00
      0.00000000000000E+00   0.00000000000000E+00   0.00000000000000E+00   0.00000000000000E+00   0.00000000000000E+00
      4.70138286355247E-15   0.00000000000000E+00   0.00000000000000E+00   0.00000000000000E+00   0.00000000000000E+00
     -5.93030132474697E-18   8.32726534654456E-26  -5.93030124147432E-18  -7.69109904640289E-15   1.80000000000000E+00
      1.80000000000000E+00   0.00000000000000E+00   0.00000000000000E+00   2.50160926647658E-04   2.17907867919089E-42
      2.50160926647658E-04   2.32491707942487E-15
      1.00000000000000E+00
      0.00000000000000E+00   0.00000000000000E+00   0.00000000000000E+00   0.00000000000000E+00  -2.88631103469387E-04
     -7.32515896457976E-26  -2.88631103469387E-04   6.48665917179044E-16   1.80000000000000E+00   1.80000000000000E+00
      0.00000000000000E+00   0.00000000000000E+00   0.00000000000000E+00   0.00000000000000E+00   0.00000000000000E+00
      5.12860925452796E-15   0.00000000000000E+00   0.00000000000000E+00   0.00000000000000E+00   0.00000000000000E+00
      1.71359145669515E-17   7.32515896457976E-26   1.71359146402031E-17  -8.04624029746974E-15   1.80000000000000E+00
      1.80000000000000E+00   0.00000000000000E+00   0.00000000000000E+00   2.88631103469369E-04   1.79111307718022E-42
      2.88631103469369E-04   2.26896512576273E-15
}
