DF-ISE text

Info {
  version   = 1.0
  type      = xyplot
  datasets  = [
    "time"
    "source OuterVoltage" "source InnerVoltage" "source QuasiFermiPotential" "source DisplacementCurrent" "source eCurrent"
    "source hCurrent" "source TotalCurrent" "source Charge" "gate OuterVoltage" "gate InnerVoltage"
    "gate QuasiFermiPotential" "gate DisplacementCurrent" "gate eCurrent" "gate hCurrent" "gate TotalCurrent"
    "gate Charge" "substrate OuterVoltage" "substrate InnerVoltage" "substrate QuasiFermiPotential" "substrate DisplacementCurrent"
    "substrate eCurrent" "substrate hCurrent" "substrate TotalCurrent" "substrate Charge" "drain OuterVoltage"
    "drain InnerVoltage" "drain QuasiFermiPotential" "drain DisplacementCurrent" "drain eCurrent" "drain hCurrent"
    "drain TotalCurrent" "drain Charge" ]
  functions = [
    Time
    OuterVoltage InnerVoltage QuasiFermiPotential DisplacementCurrent eCurrent
    hCurrent TotalCurrent Charge OuterVoltage InnerVoltage
    QuasiFermiPotential DisplacementCurrent eCurrent hCurrent TotalCurrent
    Charge OuterVoltage InnerVoltage QuasiFermiPotential DisplacementCurrent
    eCurrent hCurrent TotalCurrent Charge OuterVoltage
    InnerVoltage QuasiFermiPotential DisplacementCurrent eCurrent hCurrent
    TotalCurrent Charge ]
}

Data {
      5.00000000000000E-02
      0.00000000000000E+00   0.00000000000000E+00   0.00000000000000E+00   0.00000000000000E+00  -3.12864016041535E-15
     -6.28199314245027E-30  -3.12864016041536E-15   1.53119195155511E-15   9.00000000000000E-02   9.00000000000000E-02
      0.00000000000000E+00   0.00000000000000E+00   0.00000000000000E+00   0.00000000000000E+00   0.00000000000000E+00
      1.25051641556408E-15  -4.50000000000000E-01  -4.50000000000000E-01   0.00000000000000E+00   0.00000000000000E+00
      3.10937429344006E-15   6.28199314183201E-30   3.10937429344007E-15  -6.20507581233634E-15   1.80000000000000E+00
      1.80000000000000E+00   0.00000000000000E+00   0.00000000000000E+00   1.92658669752916E-17   6.18262425778230E-40
      1.92658669752916E-17   3.42336744521715E-15
      1.00000000000000E-01
      0.00000000000000E+00   0.00000000000000E+00   0.00000000000000E+00   0.00000000000000E+00   5.39661242606019E-13
     -6.73489823814696E-30   5.39661242606019E-13   1.47112214646816E-15   1.80000000000000E-01   1.80000000000000E-01
      0.00000000000000E+00   0.00000000000000E+00   0.00000000000000E+00   0.00000000000000E+00   0.00000000000000E+00
      1.49604338186741E-15  -4.50000000000000E-01  -4.50000000000000E-01   0.00000000000000E+00   0.00000000000000E+00
     -5.40001518566781E-13   6.73489823810554E-30  -5.40001518566781E-13  -6.34966666444971E-15   1.80000000000000E+00
      1.80000000000000E+00   0.00000000000000E+00   0.00000000000000E+00   3.40275960761626E-16   4.14297967798699E-41
      3.40275960761626E-16   3.38250113611415E-15
      1.50000000000000E-01
      0.00000000000000E+00   0.00000000000000E+00   0.00000000000000E+00   0.00000000000000E+00   2.12035290661104E-14
     -6.18333710790144E-30   2.12035290661104E-14   1.40984729636238E-15   2.70000000000000E-01   2.70000000000000E-01
      0.00000000000000E+00   0.00000000000000E+00   0.00000000000000E+00   0.00000000000000E+00   0.00000000000000E+00
      1.73849896247400E-15  -4.50000000000000E-01  -4.50000000000000E-01   0.00000000000000E+00   0.00000000000000E+00
     -2.74675686419430E-14   6.18333710789988E-30  -2.74675686419430E-14  -6.48953146560096E-15   1.80000000000000E+00
      1.80000000000000E+00   0.00000000000000E+00   0.00000000000000E+00   6.26403957583258E-15   1.55951763527554E-42
      6.26403957583258E-15   3.34118520676459E-15
      2.00000000000000E-01
      0.00000000000000E+00   0.00000000000000E+00   0.00000000000000E+00   0.00000000000000E+00  -1.18161997706112E-13
     -6.84415515847611E-30  -1.18161997706112E-13   1.34859428298157E-15   3.60000000000000E-01   3.60000000000000E-01
      0.00000000000000E+00   0.00000000000000E+00   0.00000000000000E+00   0.00000000000000E+00   0.00000000000000E+00
      1.97886583558042E-15  -4.50000000000000E-01  -4.50000000000000E-01   0.00000000000000E+00   0.00000000000000E+00
     -1.22590599494886E-18   6.84415515847578E-30  -1.22590599494202E-18  -6.62690625936883E-15   1.80000000000000E+00
      1.80000000000000E+00   0.00000000000000E+00   0.00000000000000E+00   1.18163223612106E-13   3.29080054907672E-43
      1.18163223612106E-13   3.29944614080683E-15
      2.50000000000000E-01
      0.00000000000000E+00   0.00000000000000E+00   0.00000000000000E+00   0.00000000000000E+00  -2.28109570325845E-12
     -5.31563697233721E-30  -2.28109570325845E-12   1.29040712735601E-15   4.50000000000000E-01   4.50000000000000E-01
      0.00000000000000E+00   0.00000000000000E+00   0.00000000000000E+00   0.00000000000000E+00   0.00000000000000E+00
      2.22032470114268E-15  -4.50000000000000E-01  -4.50000000000000E-01   0.00000000000000E+00   0.00000000000000E+00
      2.21001376669351E-17   5.31563697233718E-30   2.21001376669404E-17  -6.76797988601166E-15   1.80000000000000E+00
      1.80000000000000E+00   0.00000000000000E+00   0.00000000000000E+00   2.28107360312078E-12   2.19868857548534E-44
      2.28107360312078E-12   3.25724805751297E-15
      3.00000000000000E-01
      0.00000000000000E+00   0.00000000000000E+00   0.00000000000000E+00   0.00000000000000E+00  -4.48920887574270E-11
     -5.21216402013623E-30  -4.48920887574270E-11   1.23888461163043E-15   5.40000000000000E-01   5.40000000000000E-01
      0.00000000000000E+00   0.00000000000000E+00   0.00000000000000E+00   0.00000000000000E+00   0.00000000000000E+00
      2.46724492210404E-15  -4.50000000000000E-01  -4.50000000000000E-01   0.00000000000000E+00   0.00000000000000E+00
     -1.41424048523210E-15   5.21216402013622E-30  -1.41424048523210E-15  -6.92057734337485E-15   1.80000000000000E+00
      1.80000000000000E+00   0.00000000000000E+00   0.00000000000000E+00   4.48935029979122E-11   8.28831235562485E-46
      4.48935029979122E-11   3.21444780964039E-15
      3.50000000000000E-01
      0.00000000000000E+00   0.00000000000000E+00   0.00000000000000E+00   0.00000000000000E+00  -8.95015365248547E-10
     -3.64070039229865E-30  -8.95015365248547E-10   1.19471402105810E-15   6.30000000000000E-01   6.30000000000000E-01
      0.00000000000000E+00   0.00000000000000E+00   0.00000000000000E+00   0.00000000000000E+00   0.00000000000000E+00
      2.72328853702584E-15  -4.50000000000000E-01  -4.50000000000000E-01   0.00000000000000E+00   0.00000000000000E+00
     -1.47244444839273E-18   3.64070039229865E-30  -1.47244444838909E-18  -7.08884042702438E-15   1.80000000000000E+00
      1.80000000000000E+00   0.00000000000000E+00   0.00000000000000E+00   8.95015366720991E-10   2.76205265603838E-47
      8.95015366720991E-10   3.17083786894044E-15
      4.00000000000000E-01
      0.00000000000000E+00   0.00000000000000E+00   0.00000000000000E+00   0.00000000000000E+00  -1.75984123831929E-08
     -4.83692246119592E-30  -1.75984123831929E-08   1.15662453444449E-15   7.20000000000000E-01   7.20000000000000E-01
      0.00000000000000E+00   0.00000000000000E+00   0.00000000000000E+00   0.00000000000000E+00   0.00000000000000E+00
      2.99711856834711E-15  -4.50000000000000E-01  -4.50000000000000E-01   0.00000000000000E+00   0.00000000000000E+00
     -1.81834098024512E-18   4.83692246119592E-30  -1.81834098024028E-18  -7.28004404147517E-15   1.80000000000000E+00
      1.80000000000000E+00   0.00000000000000E+00   0.00000000000000E+00   1.75984123850113E-08  -4.26092707529983E-46
      1.75984123850113E-08   3.12630093868357E-15
      4.50000000000000E-01
      0.00000000000000E+00   0.00000000000000E+00   0.00000000000000E+00   0.00000000000000E+00  -2.63059472159585E-07
     -5.31709093709671E-30  -2.63059472159585E-07   1.12297144314234E-15   8.10000000000000E-01   8.10000000000000E-01
      0.00000000000000E+00   0.00000000000000E+00   0.00000000000000E+00   0.00000000000000E+00   0.00000000000000E+00
      3.34290963363654E-15  -4.50000000000000E-01  -4.50000000000000E-01   0.00000000000000E+00   0.00000000000000E+00
      1.27142378466079E-18   5.31709093709670E-30   1.27142378466611E-18  -7.54670781849767E-15   1.80000000000000E+00
      1.80000000000000E+00   0.00000000000000E+00   0.00000000000000E+00   2.63059472158314E-07  -1.74912411047076E-46
      2.63059472158314E-07   3.08082674171881E-15
      5.00000000000000E-01
      0.00000000000000E+00   0.00000000000000E+00   0.00000000000000E+00   0.00000000000000E+00  -1.65328084297579E-06
     -5.54381722777412E-30  -1.65328084297579E-06   1.09217027423086E-15   9.00000000000000E-01   9.00000000000000E-01
      0.00000000000000E+00   0.00000000000000E+00   0.00000000000000E+00   0.00000000000000E+00   0.00000000000000E+00
      3.85202129699604E-15  -4.50000000000000E-01  -4.50000000000000E-01   0.00000000000000E+00   0.00000000000000E+00
     -2.85524686839373E-16   5.54381722777412E-30  -2.85524686839367E-16  -7.97849300885152E-15   1.80000000000000E+00
      1.80000000000000E+00   0.00000000000000E+00   0.00000000000000E+00   1.65328084326131E-06  -1.51824082440970E-46
      1.65328084326131E-06   3.03430143762462E-15
      5.50000000000000E-01
      0.00000000000000E+00   0.00000000000000E+00   0.00000000000000E+00   0.00000000000000E+00  -5.07046487098861E-06
     -5.30103335688544E-30  -5.07046487098861E-06   1.06312683385723E-15   9.90000000000000E-01   9.90000000000000E-01
      0.00000000000000E+00   0.00000000000000E+00   0.00000000000000E+00   0.00000000000000E+00   0.00000000000000E+00
      4.47047207955479E-15  -4.50000000000000E-01  -4.50000000000000E-01   0.00000000000000E+00   0.00000000000000E+00
      3.40260815294337E-18   5.30103335688544E-30   3.40260815294867E-18  -8.52019805628873E-15   1.80000000000000E+00
      1.80000000000000E+00   0.00000000000000E+00   0.00000000000000E+00   5.07046487098520E-06  -1.01582152270917E-46
      5.07046487098520E-06   2.98659914287672E-15
      6.00000000000000E-01
      0.00000000000000E+00   0.00000000000000E+00   0.00000000000000E+00   0.00000000000000E+00  -1.07685484957579E-05
     -5.40274868802928E-30  -1.07685484957579E-05   1.03526412123328E-15   1.08000000000000E+00   1.08000000000000E+00
      0.00000000000000E+00   0.00000000000000E+00   0.00000000000000E+00   0.00000000000000E+00   0.00000000000000E+00
      5.13916122430359E-15  -4.50000000000000E-01  -4.50000000000000E-01   0.00000000000000E+00   0.00000000000000E+00
      8.76430960307290E-18   5.40274868802928E-30   8.76430960307830E-18  -9.11211953263004E-15   1.80000000000000E+00
      1.80000000000000E+00   0.00000000000000E+00   0.00000000000000E+00   1.07685484957491E-05  -4.56781741728822E-47
      1.07685484957491E-05   2.93769418709317E-15
      6.50000000000000E-01
      0.00000000000000E+00   0.00000000000000E+00   0.00000000000000E+00   0.00000000000000E+00  -1.87429110616112E-05
     -5.02056013924118E-30  -1.87429110616112E-05   1.00826038479204E-15   1.17000000000000E+00   1.17000000000000E+00
      0.00000000000000E+00   0.00000000000000E+00   0.00000000000000E+00   0.00000000000000E+00   0.00000000000000E+00
      5.83578664896756E-15  -4.50000000000000E-01  -4.50000000000000E-01   0.00000000000000E+00   0.00000000000000E+00
      5.53753785234580E-19   5.02056013924119E-30   5.53753785239600E-19  -9.73165947159663E-15   1.80000000000000E+00
      1.80000000000000E+00   0.00000000000000E+00   0.00000000000000E+00   1.87429110616106E-05  -1.04435633264485E-47
      1.87429110616106E-05   2.88761243783704E-15
      7.00000000000000E-01
      0.00000000000000E+00   0.00000000000000E+00   0.00000000000000E+00   0.00000000000000E+00  -2.89110962041559E-05
     -5.43211478106838E-30  -2.89110962041559E-05   9.81914174527802E-16   1.26000000000000E+00   1.26000000000000E+00
      0.00000000000000E+00   0.00000000000000E+00   0.00000000000000E+00   0.00000000000000E+00   0.00000000000000E+00
      6.55128581270411E-15  -4.50000000000000E-01  -4.50000000000000E-01   0.00000000000000E+00   0.00000000000000E+00
     -7.66570758121078E-18   5.43211478106838E-30  -7.66570758120535E-18  -1.03696495478605E-14   1.80000000000000E+00
      1.80000000000000E+00   0.00000000000000E+00   0.00000000000000E+00   2.89110962041636E-05   8.91775990866584E-48
      2.89110962041636E-05   2.83644956062856E-15
      7.50000000000000E-01
      0.00000000000000E+00   0.00000000000000E+00   0.00000000000000E+00   0.00000000000000E+00  -4.11653844109267E-05
     -4.31192643436704E-30  -4.11653844109267E-05   9.56089607411607E-16   1.35000000000000E+00   1.35000000000000E+00
      0.00000000000000E+00   0.00000000000000E+00   0.00000000000000E+00   0.00000000000000E+00   0.00000000000000E+00
      7.28128888443516E-15  -4.50000000000000E-01  -4.50000000000000E-01   0.00000000000000E+00   0.00000000000000E+00
     -6.59417033135294E-19   4.31192643436704E-30  -6.59417033130982E-19  -1.10217037059175E-14   1.80000000000000E+00
      1.80000000000000E+00   0.00000000000000E+00   0.00000000000000E+00   4.11653844109274E-05  -2.79470700576768E-47
      4.11653844109274E-05   2.78432521407072E-15
      8.00000000000000E-01
      0.00000000000000E+00   0.00000000000000E+00   0.00000000000000E+00   0.00000000000000E+00  -5.53905816869268E-05
     -4.87626471795306E-30  -5.53905816869268E-05   9.30690214293883E-16   1.44000000000000E+00   1.44000000000000E+00
      0.00000000000000E+00   0.00000000000000E+00   0.00000000000000E+00   0.00000000000000E+00   0.00000000000000E+00
      8.02351081777587E-15  -4.50000000000000E-01  -4.50000000000000E-01   0.00000000000000E+00   0.00000000000000E+00
     -1.62128635978691E-19   4.87626471795306E-30  -1.62128635973814E-19  -1.16854940222491E-14   1.80000000000000E+00
      1.80000000000000E+00   0.00000000000000E+00   0.00000000000000E+00   5.53905816869269E-05  -5.26372020197336E-47
      5.53905816869269E-05   2.73129299017938E-15
      8.50000000000000E-01
      0.00000000000000E+00   0.00000000000000E+00   0.00000000000000E+00   0.00000000000000E+00  -7.14712004034913E-05
     -4.75363036459248E-30  -7.14712004034913E-05   9.05644821966725E-16   1.53000000000000E+00   1.53000000000000E+00
      0.00000000000000E+00   0.00000000000000E+00   0.00000000000000E+00   0.00000000000000E+00   0.00000000000000E+00
      8.77666800145718E-15  -4.50000000000000E-01  -4.50000000000000E-01   0.00000000000000E+00   0.00000000000000E+00
     -4.39468326800700E-18   4.75363036459249E-30  -4.39468326800225E-18  -1.23596347504597E-14   1.80000000000000E+00
      1.80000000000000E+00   0.00000000000000E+00   0.00000000000000E+00   7.14712004034956E-05   7.20343825977308E-48
      7.14712004034956E-05   2.67732192703582E-15
      9.00000000000000E-01
      0.00000000000000E+00   0.00000000000000E+00   0.00000000000000E+00   0.00000000000000E+00  -8.92947776993913E-05
     -7.25224308008311E-30  -8.92947776993913E-05   8.80899277640099E-16   1.62000000000000E+00   1.62000000000000E+00
      0.00000000000000E+00   0.00000000000000E+00   0.00000000000000E+00   0.00000000000000E+00   0.00000000000000E+00
      9.53995999023887E-15  -4.50000000000000E-01  -4.50000000000000E-01   0.00000000000000E+00   0.00000000000000E+00
      3.35611545098299E-17   7.25224308008311E-30   3.35611545098372E-17  -1.30432544106562E-14   1.80000000000000E+00
      1.80000000000000E+00   0.00000000000000E+00   0.00000000000000E+00   8.92947776993576E-05  -2.24249236099342E-47
      8.92947776993576E-05   2.62239514277719E-15
      9.50000000000000E-01
      0.00000000000000E+00   0.00000000000000E+00   0.00000000000000E+00   0.00000000000000E+00  -1.08753704092622E-04
     -5.19390392382994E-30  -1.08753704092622E-04   8.56411341052767E-16   1.71000000000000E+00   1.71000000000000E+00
      0.00000000000000E+00   0.00000000000000E+00   0.00000000000000E+00   0.00000000000000E+00   0.00000000000000E+00
      1.03128705075398E-14  -4.50000000000000E-01  -4.50000000000000E-01   0.00000000000000E+00   0.00000000000000E+00
      1.93841181292221E-17   5.19390392382994E-30   1.93841181292273E-17  -1.37357785967925E-14   1.80000000000000E+00
      1.80000000000000E+00   0.00000000000000E+00   0.00000000000000E+00   1.08753704092603E-04  -2.20172548778326E-47
      1.08753704092603E-04   2.56649674819991E-15
      1.00000000000000E+00
      0.00000000000000E+00   0.00000000000000E+00   0.00000000000000E+00   0.00000000000000E+00  -1.29746237500500E-04
     -4.26527275889151E-30  -1.29746237500500E-04   8.32147422153070E-16   1.80000000000000E+00   1.80000000000000E+00
      0.00000000000000E+00   0.00000000000000E+00   0.00000000000000E+00   0.00000000000000E+00   0.00000000000000E+00
      1.10951967879146E-14  -4.50000000000000E-01  -4.50000000000000E-01   0.00000000000000E+00   0.00000000000000E+00
      2.02448002932531E-15   4.26527275889151E-30   2.02448002932531E-15  -1.44368184496161E-14   1.80000000000000E+00
      1.80000000000000E+00   0.00000000000000E+00   0.00000000000000E+00   1.29746237498475E-04   4.58330772082062E-48
      1.29746237498475E-04   2.50947423954837E-15
}
