DF-ISE text

Info {
  version   = 1.0
  type      = xyplot
  datasets  = [
    "time"
    "source OuterVoltage" "source InnerVoltage" "source QuasiFermiPotential" "source DisplacementCurrent" "source eCurrent"
    "source hCurrent" "source TotalCurrent" "source Charge" "gate OuterVoltage" "gate InnerVoltage"
    "gate QuasiFermiPotential" "gate DisplacementCurrent" "gate eCurrent" "gate hCurrent" "gate TotalCurrent"
    "gate Charge" "substrate OuterVoltage" "substrate InnerVoltage" "substrate QuasiFermiPotential" "substrate DisplacementCurrent"
    "substrate eCurrent" "substrate hCurrent" "substrate TotalCurrent" "substrate Charge" "drain OuterVoltage"
    "drain InnerVoltage" "drain QuasiFermiPotential" "drain DisplacementCurrent" "drain eCurrent" "drain hCurrent"
    "drain TotalCurrent" "drain Charge" ]
  functions = [
    Time
    OuterVoltage InnerVoltage QuasiFermiPotential DisplacementCurrent eCurrent
    hCurrent TotalCurrent Charge OuterVoltage InnerVoltage
    QuasiFermiPotential DisplacementCurrent eCurrent hCurrent TotalCurrent
    Charge OuterVoltage InnerVoltage QuasiFermiPotential DisplacementCurrent
    eCurrent hCurrent TotalCurrent Charge OuterVoltage
    InnerVoltage QuasiFermiPotential DisplacementCurrent eCurrent hCurrent
    TotalCurrent Charge ]
}

Data {
      5.00000000000000E-02
      0.00000000000000E+00   0.00000000000000E+00   0.00000000000000E+00   0.00000000000000E+00  -3.12591304063491E-15
     -6.52389375833942E-30  -3.12591304063492E-15   1.53119195155511E-15   9.00000000000000E-02   9.00000000000000E-02
      0.00000000000000E+00   0.00000000000000E+00   0.00000000000000E+00   0.00000000000000E+00   0.00000000000000E+00
      2.17248256984056E-15  -4.50000000000000E-01  -4.50000000000000E-01   0.00000000000000E+00   0.00000000000000E+00
      3.25444337666737E-15   8.94357401957835E-30   3.25444337666738E-15  -5.29802315672858E-15   5.00000000000000E-02
      5.00000000000000E-02   0.00000000000000E+00   0.00000000000000E+00  -1.28530336032464E-16  -2.41968026123893E-30
     -1.28530336032466E-16   1.59434863533292E-15
      1.00000000000000E-01
      0.00000000000000E+00   0.00000000000000E+00   0.00000000000000E+00   0.00000000000000E+00   5.39710554676762E-13
     -6.52965406756702E-30   5.39710554676762E-13   1.47112214646816E-15   1.80000000000000E-01   1.80000000000000E-01
      0.00000000000000E+00   0.00000000000000E+00   0.00000000000000E+00   0.00000000000000E+00   0.00000000000000E+00
      2.43697438408861E-15  -4.50000000000000E-01  -4.50000000000000E-01   0.00000000000000E+00   0.00000000000000E+00
     -8.57784608754622E-13   9.33561383595483E-30  -8.57784608754622E-13  -5.44329242357585E-15   5.00000000000000E-02
      5.00000000000000E-02   0.00000000000000E+00   0.00000000000000E+00   3.18074054077860E-13  -2.80595976838781E-30
      3.18074054077860E-13   1.53519589301907E-15
      1.50000000000000E-01
      0.00000000000000E+00   0.00000000000000E+00   0.00000000000000E+00   0.00000000000000E+00   2.21183150139429E-14
     -6.03304446208198E-30   2.21183150139429E-14   1.40984729636228E-15   2.70000000000000E-01   2.70000000000000E-01
      0.00000000000000E+00   0.00000000000000E+00   0.00000000000000E+00   0.00000000000000E+00   0.00000000000000E+00
      2.69985317823084E-15  -4.50000000000000E-01  -4.50000000000000E-01   0.00000000000000E+00   0.00000000000000E+00
     -1.34011450871800E-13   8.30145314187076E-30  -1.34011450871800E-13  -5.58419819807945E-15   5.00000000000000E-02
      5.00000000000000E-02   0.00000000000000E+00   0.00000000000000E+00   1.11893135857858E-13  -2.26840867978878E-30
      1.11893135857858E-13   1.47449772348633E-15
      2.00000000000000E-01
      0.00000000000000E+00   0.00000000000000E+00   0.00000000000000E+00   0.00000000000000E+00  -1.00769963018821E-13
     -6.85445852569011E-30  -1.00769963018821E-13   1.34859428297988E-15   3.60000000000000E-01   3.60000000000000E-01
      0.00000000000000E+00   0.00000000000000E+00   0.00000000000000E+00   0.00000000000000E+00   0.00000000000000E+00
      2.96253247705787E-15  -4.50000000000000E-01  -4.50000000000000E-01   0.00000000000000E+00   0.00000000000000E+00
     -7.35854985937974E-19   9.38292408335900E-30  -7.35854985928591E-19  -5.72415819630253E-15   5.00000000000000E-02
      5.00000000000000E-02   0.00000000000000E+00   0.00000000000000E+00   1.00770698873807E-13  -2.52846555766889E-30
      1.00770698873807E-13   1.41303143626479E-15
      2.50000000000000E-01
      0.00000000000000E+00   0.00000000000000E+00   0.00000000000000E+00   0.00000000000000E+00  -1.94262500290007E-12
     -5.58797840616859E-30  -1.94262500290007E-12   1.29040712733310E-15   4.50000000000000E-01   4.50000000000000E-01
      0.00000000000000E+00   0.00000000000000E+00   0.00000000000000E+00   0.00000000000000E+00   0.00000000000000E+00
      3.23012962127993E-15  -4.50000000000000E-01  -4.50000000000000E-01   0.00000000000000E+00   0.00000000000000E+00
      2.21338834708042E-17   7.34365747926461E-30   2.21338834708115E-17  -5.87322894518123E-15   5.00000000000000E-02
      5.00000000000000E-02   0.00000000000000E+00   0.00000000000000E+00   1.94260286901660E-12  -1.75567907309602E-30
      1.94260286901660E-12   1.35269219656821E-15
      3.00000000000000E-01
      0.00000000000000E+00   0.00000000000000E+00   0.00000000000000E+00   0.00000000000000E+00  -3.81721819759610E-11
     -5.02438734490408E-30  -3.81721819759610E-11   1.23888461142107E-15   5.40000000000000E-01   5.40000000000000E-01
      0.00000000000000E+00   0.00000000000000E+00   0.00000000000000E+00   0.00000000000000E+00   0.00000000000000E+00
      3.51035514363819E-15  -4.50000000000000E-01  -4.50000000000000E-01   0.00000000000000E+00   0.00000000000000E+00
     -1.42377186483556E-15   7.15483679365222E-30  -1.42377186483555E-15  -6.04642301502846E-15   5.00000000000000E-02
      5.00000000000000E-02   0.00000000000000E+00   0.00000000000000E+00   3.81736057478259E-11  -2.13044944874814E-30
      3.81736057478259E-11   1.29718325996920E-15
      3.50000000000000E-01
      0.00000000000000E+00   0.00000000000000E+00   0.00000000000000E+00   0.00000000000000E+00  -7.57633943293256E-10
     -4.88876309492438E-30  -7.57633943293256E-10   1.19471402061046E-15   6.30000000000000E-01   6.30000000000000E-01
      0.00000000000000E+00   0.00000000000000E+00   0.00000000000000E+00   0.00000000000000E+00   0.00000000000000E+00
      3.80945368285987E-15  -4.50000000000000E-01  -4.50000000000000E-01   0.00000000000000E+00   0.00000000000000E+00
     -2.06644518188272E-12   6.49705374378549E-30  -2.06644518188272E-12  -6.25318176531008E-15   5.00000000000000E-02
      5.00000000000000E-02   0.00000000000000E+00   0.00000000000000E+00   7.59700388475139E-10  -1.60829064886111E-30
      7.59700388475139E-10   1.24901406183975E-15
      4.00000000000000E-01
      0.00000000000000E+00   0.00000000000000E+00   0.00000000000000E+00   0.00000000000000E+00  -1.48430284564981E-08
     -5.18812959377332E-30  -1.48430284564981E-08   1.15662456042072E-15   7.20000000000000E-01   7.20000000000000E-01
      0.00000000000000E+00   0.00000000000000E+00   0.00000000000000E+00   0.00000000000000E+00   0.00000000000000E+00
      4.13879583591671E-15  -4.50000000000000E-01  -4.50000000000000E-01   0.00000000000000E+00   0.00000000000000E+00
      4.07188563890434E-18   6.67458281947473E-30   4.07188563891101E-18  -6.50310150931664E-15   5.00000000000000E-02
      5.00000000000000E-02   0.00000000000000E+00   0.00000000000000E+00   1.48430284524262E-08  -1.48645322570141E-30
      1.48430284524262E-08   1.20768111297920E-15
      4.50000000000000E-01
      0.00000000000000E+00   0.00000000000000E+00   0.00000000000000E+00   0.00000000000000E+00  -2.10213077930654E-07
     -4.55686716285913E-30  -2.10213077930654E-07   1.12297180489026E-15   8.10000000000000E-01   8.10000000000000E-01
      0.00000000000000E+00   0.00000000000000E+00   0.00000000000000E+00   0.00000000000000E+00   0.00000000000000E+00
      4.56840898084168E-15  -4.50000000000000E-01  -4.50000000000000E-01   0.00000000000000E+00   0.00000000000000E+00
      3.28197755230818E-19   6.48828000694865E-30   3.28197755237306E-19  -6.86307878543029E-15   5.00000000000000E-02
      5.00000000000000E-02   0.00000000000000E+00   0.00000000000000E+00   2.10213077930325E-07  -1.93141284408951E-30
      2.10213077930325E-07   1.17169799969835E-15
      5.00000000000000E-01
      0.00000000000000E+00   0.00000000000000E+00   0.00000000000000E+00   0.00000000000000E+00  -1.05224865072709E-06
     -5.42928665567312E-30  -1.05224865072709E-06   1.09216918380518E-15   9.00000000000000E-01   9.00000000000000E-01
      0.00000000000000E+00   0.00000000000000E+00   0.00000000000000E+00   0.00000000000000E+00   0.00000000000000E+00
      5.24818751795702E-15  -4.50000000000000E-01  -4.50000000000000E-01   0.00000000000000E+00   0.00000000000000E+00
     -3.82307748504811E-15   7.74025006907531E-30  -3.82307748504810E-15  -7.47978811015953E-15   5.00000000000000E-02
      5.00000000000000E-02   0.00000000000000E+00   0.00000000000000E+00   1.05224865455017E-06  -2.31096341340220E-30
      1.05224865455017E-06   1.13943140839732E-15
      5.50000000000000E-01
      0.00000000000000E+00   0.00000000000000E+00   0.00000000000000E+00   0.00000000000000E+00  -2.36478842949448E-06
     -5.08911352905324E-30  -2.36478842949448E-06   1.06310627838146E-15   9.90000000000000E-01   9.90000000000000E-01
      0.00000000000000E+00   0.00000000000000E+00   0.00000000000000E+00   0.00000000000000E+00   0.00000000000000E+00
      6.12882317766147E-15  -4.50000000000000E-01  -4.50000000000000E-01   0.00000000000000E+00   0.00000000000000E+00
      7.98990899557080E-18   7.29013999799355E-30   7.98990899557809E-18  -8.30138421225160E-15   5.00000000000000E-02
      5.00000000000000E-02   0.00000000000000E+00   0.00000000000000E+00   2.36478842948649E-06  -2.20102646894031E-30
      2.36478842948649E-06   1.10945475620867E-15
      6.00000000000000E-01
      0.00000000000000E+00   0.00000000000000E+00   0.00000000000000E+00   0.00000000000000E+00  -3.82209466974190E-06
     -5.56666939093980E-30  -3.82209466974190E-06   1.03518634914350E-15   1.08000000000000E+00   1.08000000000000E+00
      0.00000000000000E+00   0.00000000000000E+00   0.00000000000000E+00   0.00000000000000E+00   0.00000000000000E+00
      7.09799605119682E-15  -4.50000000000000E-01  -4.50000000000000E-01   0.00000000000000E+00   0.00000000000000E+00
     -2.18141694420951E-16   7.52341768244680E-30  -2.18141694420944E-16  -9.21407845049415E-15   5.00000000000000E-02
      5.00000000000000E-02   0.00000000000000E+00   0.00000000000000E+00   3.82209466996005E-06  -1.95674829150700E-30
      3.82209466996005E-06   1.08089605015383E-15
      6.50000000000000E-01
      0.00000000000000E+00   0.00000000000000E+00   0.00000000000000E+00   0.00000000000000E+00  -5.31953717336098E-06
     -5.52557838952122E-30  -5.31953717336098E-06   1.00807766092327E-15   1.17000000000000E+00   1.17000000000000E+00
      0.00000000000000E+00   0.00000000000000E+00   0.00000000000000E+00   0.00000000000000E+00   0.00000000000000E+00
      8.10862636868483E-15  -4.50000000000000E-01  -4.50000000000000E-01   0.00000000000000E+00   0.00000000000000E+00
     -1.76622438348386E-18   8.13106855789000E-30  -1.76622438347573E-18  -1.01700076367199E-14   5.00000000000000E-02
      5.00000000000000E-02   0.00000000000000E+00   0.00000000000000E+00   5.31953717336275E-06  -2.60549016836878E-30
      5.31953717336275E-06   1.05330360711181E-15
      7.00000000000000E-01
      0.00000000000000E+00   0.00000000000000E+00   0.00000000000000E+00   0.00000000000000E+00  -6.82413871934576E-06
     -5.00225998358470E-30  -6.82413871934576E-06   9.81575220621854E-16   1.26000000000000E+00   1.26000000000000E+00
      0.00000000000000E+00   0.00000000000000E+00   0.00000000000000E+00   0.00000000000000E+00   0.00000000000000E+00
      9.14231698614879E-15  -4.50000000000000E-01  -4.50000000000000E-01   0.00000000000000E+00   0.00000000000000E+00
      1.77276605314545E-17   6.87038488827522E-30   1.77276605314614E-17  -1.11503075754094E-14   5.00000000000000E-02
      5.00000000000000E-02   0.00000000000000E+00   0.00000000000000E+00   6.82413871932803E-06  -1.86812490469052E-30
      6.82413871932803E-06   1.02641536863871E-15
      7.50000000000000E-01
      0.00000000000000E+00   0.00000000000000E+00   0.00000000000000E+00   0.00000000000000E+00  -8.32333712308711E-06
     -4.80511653047596E-30  -8.32333712308711E-06   9.55542656647783E-16   1.35000000000000E+00   1.35000000000000E+00
      0.00000000000000E+00   0.00000000000000E+00   0.00000000000000E+00   0.00000000000000E+00   0.00000000000000E+00
      1.01905185249427E-14  -4.50000000000000E-01  -4.50000000000000E-01   0.00000000000000E+00   0.00000000000000E+00
     -4.66728333266733E-18   6.43058050230940E-30  -4.66728333266090E-18  -1.21461245961943E-14   5.00000000000000E-02
      5.00000000000000E-02   0.00000000000000E+00   0.00000000000000E+00   8.32333712309178E-06  -1.62546397183344E-30
      8.32333712309178E-06   1.00006341460376E-15
      8.00000000000000E-01
      0.00000000000000E+00   0.00000000000000E+00   0.00000000000000E+00   0.00000000000000E+00  -9.81170106499888E-06
     -6.61844920884182E-30  -9.81170106499888E-06   9.29884488564324E-16   1.44000000000000E+00   1.44000000000000E+00
      0.00000000000000E+00   0.00000000000000E+00   0.00000000000000E+00   0.00000000000000E+00   0.00000000000000E+00
      1.12486479434859E-14  -4.50000000000000E-01  -4.50000000000000E-01   0.00000000000000E+00   0.00000000000000E+00
     -1.85856364701199E-17   8.54946639381129E-30  -1.85856364701113E-17  -1.31526655557751E-14   5.00000000000000E-02
      5.00000000000000E-02   0.00000000000000E+00   0.00000000000000E+00   9.81170106501746E-06  -1.93101718496947E-30
      9.81170106501746E-06   9.74133123724965E-16
      8.50000000000000E-01
      0.00000000000000E+00   0.00000000000000E+00   0.00000000000000E+00   0.00000000000000E+00  -1.12867330593728E-05
     -4.39880421017178E-30  -1.12867330593728E-05   9.04531265639004E-16   1.53000000000000E+00   1.53000000000000E+00
      0.00000000000000E+00   0.00000000000000E+00   0.00000000000000E+00   0.00000000000000E+00   0.00000000000000E+00
      1.23139827130593E-14  -4.50000000000000E-01  -4.50000000000000E-01   0.00000000000000E+00   0.00000000000000E+00
     -1.24081532754058E-17   6.30666397690831E-30  -1.24081532753995E-17  -1.41670566702305E-14   5.00000000000000E-02
      5.00000000000000E-02   0.00000000000000E+00   0.00000000000000E+00   1.12867330593852E-05  -1.90785976673652E-30
      1.12867330593852E-05   9.48542691532273E-16
      9.00000000000000E-01
      0.00000000000000E+00   0.00000000000000E+00   0.00000000000000E+00   0.00000000000000E+00  -1.27472860618728E-05
     -4.42701073209955E-30  -1.27472860618728E-05   8.79430929213424E-16   1.62000000000000E+00   1.62000000000000E+00
      0.00000000000000E+00   0.00000000000000E+00   0.00000000000000E+00   0.00000000000000E+00   0.00000000000000E+00
      1.33847794340272E-14  -4.50000000000000E-01  -4.50000000000000E-01   0.00000000000000E+00   0.00000000000000E+00
     -3.35550812053881E-12   6.56379854312170E-30  -3.35550812053881E-12  -1.51874420786366E-14   5.00000000000000E-02
      5.00000000000000E-02   0.00000000000000E+00   0.00000000000000E+00   1.27472894173809E-05  -2.13678781102214E-30
      1.27472894173809E-05   9.23231715395928E-16
      9.50000000000000E-01
      0.00000000000000E+00   0.00000000000000E+00   0.00000000000000E+00   0.00000000000000E+00  -1.41928999666972E-05
     -5.37335411655277E-30  -1.41928999666972E-05   8.54543487911628E-16   1.71000000000000E+00   1.71000000000000E+00
      0.00000000000000E+00   0.00000000000000E+00   0.00000000000000E+00   0.00000000000000E+00   0.00000000000000E+00
      1.44598565727973E-14  -4.50000000000000E-01  -4.50000000000000E-01   0.00000000000000E+00   0.00000000000000E+00
     -1.86922993930310E-12   6.96953862920824E-30  -1.86922993930310E-12  -1.62125544242623E-14   5.00000000000000E-02
      5.00000000000000E-02   0.00000000000000E+00   0.00000000000000E+00   1.41929018359271E-05  -1.59618451265547E-30
      1.41929018359271E-05   8.98154363553322E-16
      1.00000000000000E+00
      0.00000000000000E+00   0.00000000000000E+00   0.00000000000000E+00   0.00000000000000E+00  -1.56234588621119E-05
     -5.20884621353320E-30  -1.56234588621119E-05   8.29837583071101E-16   1.80000000000000E+00   1.80000000000000E+00
      0.00000000000000E+00   0.00000000000000E+00   0.00000000000000E+00   0.00000000000000E+00   0.00000000000000E+00
      1.55383772500641E-14  -4.50000000000000E-01  -4.50000000000000E-01   0.00000000000000E+00   0.00000000000000E+00
     -1.08272566504009E-12   7.20129978407810E-30  -1.08272566504009E-12  -1.72414899013361E-14   5.00000000000000E-02
      5.00000000000000E-02   0.00000000000000E+00   0.00000000000000E+00   1.56234599448376E-05  -1.99245357054490E-30
      1.56234599448376E-05   8.73275068200935E-16
}
