DF-ISE text

Info {
  version   = 1.0
  type      = xyplot
  datasets  = [
    "time"
    "source OuterVoltage" "source InnerVoltage" "source QuasiFermiPotential" "source DisplacementCurrent" "source eCurrent"
    "source hCurrent" "source TotalCurrent" "source Charge" "gate OuterVoltage" "gate InnerVoltage"
    "gate QuasiFermiPotential" "gate DisplacementCurrent" "gate eCurrent" "gate hCurrent" "gate TotalCurrent"
    "gate Charge" "substrate OuterVoltage" "substrate InnerVoltage" "substrate QuasiFermiPotential" "substrate DisplacementCurrent"
    "substrate eCurrent" "substrate hCurrent" "substrate TotalCurrent" "substrate Charge" "drain OuterVoltage"
    "drain InnerVoltage" "drain QuasiFermiPotential" "drain DisplacementCurrent" "drain eCurrent" "drain hCurrent"
    "drain TotalCurrent" "drain Charge" ]
  functions = [
    Time
    OuterVoltage InnerVoltage QuasiFermiPotential DisplacementCurrent eCurrent
    hCurrent TotalCurrent Charge OuterVoltage InnerVoltage
    QuasiFermiPotential DisplacementCurrent eCurrent hCurrent TotalCurrent
    Charge OuterVoltage InnerVoltage QuasiFermiPotential DisplacementCurrent
    eCurrent hCurrent TotalCurrent Charge OuterVoltage
    InnerVoltage QuasiFermiPotential DisplacementCurrent eCurrent hCurrent
    TotalCurrent Charge ]
}

Data {
      5.00000000000000E-02
      0.00000000000000E+00   0.00000000000000E+00   0.00000000000000E+00   0.00000000000000E+00  -1.76374877496235E-08
     -5.39913623265951E-34  -1.76374877496235E-08   1.68467151839269E-15   9.00000000000000E-02   9.00000000000000E-02
      0.00000000000000E+00   0.00000000000000E+00   0.00000000000000E+00   0.00000000000000E+00   0.00000000000000E+00
     -5.32104583434883E-16  -9.00000000000000E-01  -9.00000000000000E-01   0.00000000000000E+00   0.00000000000000E+00
      4.98812189581476E-14   4.72979149814936E-34   4.98812189581476E-14  -2.90122800298880E-15   5.00000000000000E-02
      5.00000000000000E-02   0.00000000000000E+00   0.00000000000000E+00   1.76374378684045E-08   6.69344734510148E-35
      1.76374378684045E-08   1.74866106803100E-15
      1.00000000000000E-01
      0.00000000000000E+00   0.00000000000000E+00   0.00000000000000E+00   0.00000000000000E+00  -7.60529176527642E-08
     -4.35092487864859E-34  -7.60529176527642E-08   1.62461089638182E-15   1.80000000000000E-01   1.80000000000000E-01
      0.00000000000000E+00   0.00000000000000E+00   0.00000000000000E+00   0.00000000000000E+00   0.00000000000000E+00
     -4.12258167845155E-16  -9.00000000000000E-01  -9.00000000000000E-01   0.00000000000000E+00   0.00000000000000E+00
      1.39256723817090E-15   4.29503681196229E-34   1.39256723817090E-15  -2.90221268690848E-15   5.00000000000000E-02
      5.00000000000000E-02   0.00000000000000E+00   0.00000000000000E+00   7.60529162601969E-08   5.58880666863013E-36
      7.60529162601969E-08   1.68985995837182E-15
      1.50000000000000E-01
      0.00000000000000E+00   0.00000000000000E+00   0.00000000000000E+00   0.00000000000000E+00  -3.39960386211602E-07
     -6.50687795061765E-34  -3.39960386211602E-07   1.56327770657400E-15   2.70000000000000E-01   2.70000000000000E-01
      0.00000000000000E+00   0.00000000000000E+00   0.00000000000000E+00   0.00000000000000E+00   0.00000000000000E+00
     -2.88265071960866E-16  -9.00000000000000E-01  -9.00000000000000E-01   0.00000000000000E+00   0.00000000000000E+00
     -6.05198176058637E-19   6.65515270530060E-34  -6.05198176058636E-19  -2.90465074848632E-15   5.00000000000000E-02
      5.00000000000000E-02   0.00000000000000E+00   0.00000000000000E+00   3.39960386212207E-07  -1.48274754682958E-35
      3.39960386212207E-07   1.62963811387319E-15
      2.00000000000000E-01
      0.00000000000000E+00   0.00000000000000E+00   0.00000000000000E+00   0.00000000000000E+00  -1.49571962456944E-06
     -3.87505254957929E-34  -1.49571962456944E-06   1.50226278627677E-15   3.60000000000000E-01   3.60000000000000E-01
      0.00000000000000E+00   0.00000000000000E+00   0.00000000000000E+00   0.00000000000000E+00   0.00000000000000E+00
     -1.57768263482886E-16  -9.00000000000000E-01  -9.00000000000000E-01   0.00000000000000E+00   0.00000000000000E+00
     -8.92571427115449E-20   3.61594174447055E-34  -8.92571427115446E-20  -2.91307089201211E-15   5.00000000000000E-02
      5.00000000000000E-02   0.00000000000000E+00   0.00000000000000E+00   1.49571962456953E-06   2.59110805108739E-35
      1.49571962456953E-06   1.56857636921823E-15
      2.50000000000000E-01
      0.00000000000000E+00   0.00000000000000E+00   0.00000000000000E+00   0.00000000000000E+00  -5.53404436820966E-06
     -5.03028717649953E-34  -5.53404436820966E-06   1.44597866002304E-15   4.50000000000000E-01   4.50000000000000E-01
      0.00000000000000E+00   0.00000000000000E+00   0.00000000000000E+00   0.00000000000000E+00   0.00000000000000E+00
     -1.47393601797851E-17  -9.00000000000000E-01  -9.00000000000000E-01   0.00000000000000E+00   0.00000000000000E+00
      3.39844230524317E-17   5.04064621574074E-34   3.39844230524317E-17  -2.94016287569504E-15   5.00000000000000E-02
      5.00000000000000E-02   0.00000000000000E+00   0.00000000000000E+00   5.53404436817568E-06  -1.03590392412113E-36
      5.53404436817568E-06   1.50892357585179E-15
      3.00000000000000E-01
      0.00000000000000E+00   0.00000000000000E+00   0.00000000000000E+00   0.00000000000000E+00  -1.42693028390390E-05
     -3.97073744179312E-34  -1.42693028390390E-05   1.39915231625216E-15   5.40000000000000E-01   5.40000000000000E-01
      0.00000000000000E+00   0.00000000000000E+00   0.00000000000000E+00   0.00000000000000E+00   0.00000000000000E+00
      1.48707487892747E-16  -9.00000000000000E-01  -9.00000000000000E-01   0.00000000000000E+00   0.00000000000000E+00
     -3.65883349790796E-15   3.24615390692327E-34  -3.65883349790796E-15  -3.00359346101804E-15   5.00000000000000E-02
      5.00000000000000E-02   0.00000000000000E+00   0.00000000000000E+00   1.42693028426979E-05   7.24583534869851E-35
      1.42693028426979E-05   1.45573365687313E-15
      3.50000000000000E-01
      0.00000000000000E+00   0.00000000000000E+00   0.00000000000000E+00   0.00000000000000E+00  -2.52685888982216E-05
     -6.55123807323170E-34  -2.52685888982216E-05   1.36123358924700E-15   6.30000000000000E-01   6.30000000000000E-01
      0.00000000000000E+00   0.00000000000000E+00   0.00000000000000E+00   0.00000000000000E+00   0.00000000000000E+00
      3.33065541636497E-16  -9.00000000000000E-01  -9.00000000000000E-01   0.00000000000000E+00   0.00000000000000E+00
     -4.42567610282631E-16   5.96169546444831E-34  -4.42567610282631E-16  -3.10662071435618E-15   5.00000000000000E-02
      5.00000000000000E-02   0.00000000000000E+00   0.00000000000000E+00   2.52685888986642E-05   5.89542608783383E-35
      2.52685888986642E-05   1.41232158347268E-15
      4.00000000000000E-01
      0.00000000000000E+00   0.00000000000000E+00   0.00000000000000E+00   0.00000000000000E+00  -3.56236332656625E-05
     -3.84985118170159E-34  -3.56236332656625E-05   1.32900807735358E-15   7.20000000000000E-01   7.20000000000000E-01
      0.00000000000000E+00   0.00000000000000E+00   0.00000000000000E+00   0.00000000000000E+00   0.00000000000000E+00
      5.31333136480063E-16  -9.00000000000000E-01  -9.00000000000000E-01   0.00000000000000E+00   0.00000000000000E+00
     -5.42215128104038E-18   3.21422380589717E-34  -5.42215128104038E-18  -3.23688381165426E-15   5.00000000000000E-02
      5.00000000000000E-02   0.00000000000000E+00   0.00000000000000E+00   3.56236332656679E-05   6.35627375804415E-35
      3.56236332656679E-05   1.37654259782062E-15
      4.50000000000000E-01
      0.00000000000000E+00   0.00000000000000E+00   0.00000000000000E+00   0.00000000000000E+00  -4.47895051893763E-05
     -3.82028733498163E-34  -4.47895051893763E-05   1.30019370605350E-15   8.10000000000000E-01   8.10000000000000E-01
      0.00000000000000E+00   0.00000000000000E+00   0.00000000000000E+00   0.00000000000000E+00   0.00000000000000E+00
      7.37632840714846E-16  -9.00000000000000E-01  -9.00000000000000E-01   0.00000000000000E+00   0.00000000000000E+00
     -1.06101747982815E-13   3.58977302583648E-34  -1.06101747982815E-13  -3.38323914947137E-15   5.00000000000000E-02
      5.00000000000000E-02   0.00000000000000E+00   0.00000000000000E+00   4.47895052954781E-05   2.30514309145144E-35
      4.47895052954781E-05   1.34541260270302E-15
      5.00000000000000E-01
      0.00000000000000E+00   0.00000000000000E+00   0.00000000000000E+00   0.00000000000000E+00  -5.29382559470105E-05
     -3.01007231115887E-34  -5.29382559470105E-05   1.27352971403761E-15   9.00000000000000E-01   9.00000000000000E-01
      0.00000000000000E+00   0.00000000000000E+00   0.00000000000000E+00   0.00000000000000E+00   0.00000000000000E+00
      9.48760098088654E-16  -9.00000000000000E-01  -9.00000000000000E-01   0.00000000000000E+00   0.00000000000000E+00
     -3.14567756714472E-15   2.99306702252829E-34  -3.14567756714472E-15  -3.53941551179795E-15   5.00000000000000E-02
      5.00000000000000E-02   0.00000000000000E+00   0.00000000000000E+00   5.29382559501562E-05   1.70052886305823E-36
      5.29382559501562E-05   1.31712569967168E-15
      5.50000000000000E-01
      0.00000000000000E+00   0.00000000000000E+00   0.00000000000000E+00   0.00000000000000E+00  -6.02786424951985E-05
     -3.03861218014058E-34  -6.02786424951985E-05   1.24830722297247E-15   9.90000000000000E-01   9.90000000000000E-01
      0.00000000000000E+00   0.00000000000000E+00   0.00000000000000E+00   0.00000000000000E+00   0.00000000000000E+00
      1.16301666871333E-15  -9.00000000000000E-01  -9.00000000000000E-01   0.00000000000000E+00   0.00000000000000E+00
     -1.58584510269278E-16   2.69063886168675E-34  -1.58584510269278E-16  -3.70200996460227E-15   5.00000000000000E-02
      5.00000000000000E-02   0.00000000000000E+00   0.00000000000000E+00   6.02786424953571E-05   3.47973318453829E-35
      6.02786424953571E-05   1.29068607291646E-15
      6.00000000000000E-01
      0.00000000000000E+00   0.00000000000000E+00   0.00000000000000E+00   0.00000000000000E+00  -6.69720344327181E-05
     -5.66847515987659E-34  -6.69720344327181E-05   1.22410329647767E-15   1.08000000000000E+00   1.08000000000000E+00
      0.00000000000000E+00   0.00000000000000E+00   0.00000000000000E+00   0.00000000000000E+00   0.00000000000000E+00
      1.37943567870565E-15  -9.00000000000000E-01  -9.00000000000000E-01   0.00000000000000E+00   0.00000000000000E+00
     -1.11838362805432E-17   5.95141834910060E-34  -1.11838362805432E-17  -3.86905911704541E-15   5.00000000000000E-02
      5.00000000000000E-02   0.00000000000000E+00   0.00000000000000E+00   6.69720344327294E-05  -2.82943189224008E-35
      6.69720344327294E-05   1.26552014186208E-15
      6.50000000000000E-01
      0.00000000000000E+00   0.00000000000000E+00   0.00000000000000E+00   0.00000000000000E+00  -7.31362864678070E-05
     -4.79830882763456E-34  -7.31362864678070E-05   1.20065048917772E-15   1.17000000000000E+00   1.17000000000000E+00
      0.00000000000000E+00   0.00000000000000E+00   0.00000000000000E+00   0.00000000000000E+00   0.00000000000000E+00
      1.59742645336711E-15  -9.00000000000000E-01  -9.00000000000000E-01   0.00000000000000E+00   0.00000000000000E+00
      1.32409388532385E-17   4.53584806939023E-34   1.32409388532385E-17  -4.03935327312189E-15   5.00000000000000E-02
      5.00000000000000E-02   0.00000000000000E+00   0.00000000000000E+00   7.31362864677938E-05   2.62460758244330E-35
      7.31362864677938E-05   1.24127633057707E-15
      7.00000000000000E-01
      0.00000000000000E+00   0.00000000000000E+00   0.00000000000000E+00   0.00000000000000E+00  -7.88580982699278E-05
     -5.06608949667625E-34  -7.88580982699278E-05   1.17777101450771E-15   1.26000000000000E+00   1.26000000000000E+00
      0.00000000000000E+00   0.00000000000000E+00   0.00000000000000E+00   0.00000000000000E+00   0.00000000000000E+00
      1.81660576927940E-15  -9.00000000000000E-01  -9.00000000000000E-01   0.00000000000000E+00   0.00000000000000E+00
     -7.89615698321792E-11   4.86450406827914E-34  -7.89615698321792E-11  -4.21210348916943E-15   5.00000000000000E-02
      5.00000000000000E-02   0.00000000000000E+00   0.00000000000000E+00   7.88581772314976E-05   2.01585428397114E-35
      7.88581772314976E-05   1.21772670538232E-15
      7.50000000000000E-01
      0.00000000000000E+00   0.00000000000000E+00   0.00000000000000E+00   0.00000000000000E+00  -8.42031519513730E-05
     -4.30517131106471E-34  -8.42031519513730E-05   1.15534159329773E-15   1.35000000000000E+00   1.35000000000000E+00
      0.00000000000000E+00   0.00000000000000E+00   0.00000000000000E+00   0.00000000000000E+00   0.00000000000000E+00
      2.03671276313268E-15  -9.00000000000000E-01  -9.00000000000000E-01   0.00000000000000E+00   0.00000000000000E+00
     -3.38476058423051E-11   3.85995999563987E-34  -3.38476058423051E-11  -4.38677070679305E-15   5.00000000000000E-02
      5.00000000000000E-02   0.00000000000000E+00   0.00000000000000E+00   8.42031857989789E-05   4.45211315424844E-35
      8.42031857989789E-05   1.19471635036264E-15
      8.00000000000000E-01
      0.00000000000000E+00   0.00000000000000E+00   0.00000000000000E+00   0.00000000000000E+00  -8.92222155973926E-05
     -5.67467715394223E-34  -8.92222155973926E-05   1.13327366414737E-15   1.44000000000000E+00   1.44000000000000E+00
      0.00000000000000E+00   0.00000000000000E+00   0.00000000000000E+00   0.00000000000000E+00   0.00000000000000E+00
      2.25756280249580E-15  -9.00000000000000E-01  -9.00000000000000E-01   0.00000000000000E+00   0.00000000000000E+00
     -1.57026951594626E-11   4.52516447861609E-34  -1.57026951594626E-11  -4.56297225376421E-15   5.00000000000000E-02
      5.00000000000000E-02   0.00000000000000E+00   0.00000000000000E+00   8.92222313000877E-05   1.14951267532614E-34
      8.92222313000877E-05   1.17213578712104E-15
      8.50000000000000E-01
      0.00000000000000E+00   0.00000000000000E+00   0.00000000000000E+00   0.00000000000000E+00  -9.39558338520133E-05
     -4.14549740805639E-34  -9.39558338520133E-05   1.11150176879939E-15   1.53000000000000E+00   1.53000000000000E+00
      0.00000000000000E+00   0.00000000000000E+00   0.00000000000000E+00   0.00000000000000E+00   0.00000000000000E+00
      2.47902030397625E-15  -9.00000000000000E-01  -9.00000000000000E-01   0.00000000000000E+00   0.00000000000000E+00
     -7.78176642211948E-12   4.10842358725922E-34  -7.78176642211948E-12  -4.74042721027151E-15   5.00000000000000E-02
      5.00000000000000E-02   0.00000000000000E+00   0.00000000000000E+00   9.39558416337798E-05   3.70738207971670E-36
      9.39558416337798E-05   1.14990513749587E-15
      9.00000000000000E-01
      0.00000000000000E+00   0.00000000000000E+00   0.00000000000000E+00   0.00000000000000E+00  -9.84366315609207E-05
     -5.97397100346664E-34  -9.84366315609207E-05   1.08997628726414E-15   1.62000000000000E+00   1.62000000000000E+00
      0.00000000000000E+00   0.00000000000000E+00   0.00000000000000E+00   0.00000000000000E+00   0.00000000000000E+00
      2.70098330544867E-15  -9.00000000000000E-01  -9.00000000000000E-01   0.00000000000000E+00   0.00000000000000E+00
     -4.07765229873078E-12   5.70371807088898E-34  -4.07765229873078E-12  -4.91892403772296E-15   5.00000000000000E-02
      5.00000000000000E-02   0.00000000000000E+00   0.00000000000000E+00   9.84366356385730E-05   2.70252932577660E-35
      9.84366356385730E-05   1.12796444501015E-15
      9.50000000000000E-01
      0.00000000000000E+00   0.00000000000000E+00   0.00000000000000E+00   0.00000000000000E+00  -1.02691460937905E-04
     -4.77256754274482E-34  -1.02691460937905E-04   1.06865879596550E-15   1.71000000000000E+00   1.71000000000000E+00
      0.00000000000000E+00   0.00000000000000E+00   0.00000000000000E+00   0.00000000000000E+00   0.00000000000000E+00
      2.92337323456165E-15  -9.00000000000000E-01  -9.00000000000000E-01   0.00000000000000E+00   0.00000000000000E+00
     -2.24123347673401E-12   4.24739538052593E-34  -2.24123347673401E-12  -5.09829969908358E-15   5.00000000000000E-02
      5.00000000000000E-02   0.00000000000000E+00   0.00000000000000E+00   1.02691463179138E-04   5.25172162218888E-35
      1.02691463179138E-04   1.10626766855644E-15
      1.00000000000000E+00
      0.00000000000000E+00   0.00000000000000E+00   0.00000000000000E+00   0.00000000000000E+00  -1.06742761976806E-04
     -5.24751412298196E-34  -1.06742761976806E-04   1.04751898981745E-15   1.80000000000000E+00   1.80000000000000E+00
      0.00000000000000E+00   0.00000000000000E+00   0.00000000000000E+00   0.00000000000000E+00   0.00000000000000E+00
      3.14612832895001E-15  -9.00000000000000E-01  -9.00000000000000E-01   0.00000000000000E+00   0.00000000000000E+00
     -1.28385798183732E-12   5.27483808808631E-34  -1.28385798183732E-12  -5.27842606003801E-15   5.00000000000000E-02
      5.00000000000000E-02   0.00000000000000E+00   0.00000000000000E+00   1.06742763260664E-04  -2.73239651043548E-36
      1.06742763260664E-04   1.08477874127056E-15
}
