DF-ISE text

Info {
  version   = 1.0
  type      = xyplot
  datasets  = [
    "time"
    "source OuterVoltage" "source InnerVoltage" "source QuasiFermiPotential" "source DisplacementCurrent" "source eCurrent"
    "source hCurrent" "source TotalCurrent" "source Charge" "gate OuterVoltage" "gate InnerVoltage"
    "gate QuasiFermiPotential" "gate DisplacementCurrent" "gate eCurrent" "gate hCurrent" "gate TotalCurrent"
    "gate Charge" "substrate OuterVoltage" "substrate InnerVoltage" "substrate QuasiFermiPotential" "substrate DisplacementCurrent"
    "substrate eCurrent" "substrate hCurrent" "substrate TotalCurrent" "substrate Charge" "drain OuterVoltage"
    "drain InnerVoltage" "drain QuasiFermiPotential" "drain DisplacementCurrent" "drain eCurrent" "drain hCurrent"
    "drain TotalCurrent" "drain Charge" ]
  functions = [
    Time
    OuterVoltage InnerVoltage QuasiFermiPotential DisplacementCurrent eCurrent
    hCurrent TotalCurrent Charge OuterVoltage InnerVoltage
    QuasiFermiPotential DisplacementCurrent eCurrent hCurrent TotalCurrent
    Charge OuterVoltage InnerVoltage QuasiFermiPotential DisplacementCurrent
    eCurrent hCurrent TotalCurrent Charge OuterVoltage
    InnerVoltage QuasiFermiPotential DisplacementCurrent eCurrent hCurrent
    TotalCurrent Charge ]
}

Data {
      5.00000000000000E-02
      0.00000000000000E+00   0.00000000000000E+00   0.00000000000000E+00   0.00000000000000E+00  -3.66447621589374E-08
     -8.75101893763499E-30  -3.66447621589374E-08   1.44321269227248E-15   9.00000000000000E-02   9.00000000000000E-02
      0.00000000000000E+00   0.00000000000000E+00   0.00000000000000E+00   0.00000000000000E+00   0.00000000000000E+00
     -5.34952134064686E-16  -4.50000000000000E-01  -4.50000000000000E-01   0.00000000000000E+00   0.00000000000000E+00
      4.82477591753987E-14   9.25506597797463E-30   4.82477591753988E-14  -2.41792762528802E-15   5.00000000000000E-02
      5.00000000000000E-02   0.00000000000000E+00   0.00000000000000E+00   3.66447139111783E-08  -5.04047040339643E-31
      3.66447139111783E-08   1.50966706708022E-15
      1.00000000000000E-01
      0.00000000000000E+00   0.00000000000000E+00   0.00000000000000E+00   0.00000000000000E+00  -1.38090340996552E-07
     -1.10553648907103E-29  -1.38090340996552E-07   1.38296982783693E-15   1.80000000000000E-01   1.80000000000000E-01
      0.00000000000000E+00   0.00000000000000E+00   0.00000000000000E+00   0.00000000000000E+00   0.00000000000000E+00
     -4.14741661088243E-16  -4.50000000000000E-01  -4.50000000000000E-01   0.00000000000000E+00   0.00000000000000E+00
      6.66743570960865E-15   1.22183785477649E-29   6.66743570960866E-15  -2.41895730445470E-15   5.00000000000000E-02
      5.00000000000000E-02   0.00000000000000E+00   0.00000000000000E+00   1.38090334329116E-07  -1.16301365705457E-30
      1.38090334329116E-07   1.45072913770601E-15
      1.50000000000000E-01
      0.00000000000000E+00   0.00000000000000E+00   0.00000000000000E+00   0.00000000000000E+00  -5.35858858374027E-07
     -1.16846649295352E-29  -5.35858858374027E-07   1.32146182968238E-15   2.70000000000000E-01   2.70000000000000E-01
      0.00000000000000E+00   0.00000000000000E+00   0.00000000000000E+00   0.00000000000000E+00   0.00000000000000E+00
     -2.90310113377762E-16  -4.50000000000000E-01  -4.50000000000000E-01   0.00000000000000E+00   0.00000000000000E+00
     -5.56321199604072E-19   1.14636276877798E-29  -5.56321199592609E-19  -2.42148034276085E-15   5.00000000000000E-02
      5.00000000000000E-02   0.00000000000000E+00   0.00000000000000E+00   5.35858858374583E-07   2.21037241755439E-31
      5.35858858374583E-07   1.39032862645623E-15
      2.00000000000000E-01
      0.00000000000000E+00   0.00000000000000E+00   0.00000000000000E+00   0.00000000000000E+00  -2.03802931342745E-06
     -1.07171511302318E-29  -2.03802931342745E-06   1.26035660108332E-15   3.60000000000000E-01   3.60000000000000E-01
      0.00000000000000E+00   0.00000000000000E+00   0.00000000000000E+00   0.00000000000000E+00   0.00000000000000E+00
     -1.59302537981529E-16  -4.50000000000000E-01  -4.50000000000000E-01   0.00000000000000E+00   0.00000000000000E+00
      4.21961556066365E-19   1.13158357787145E-29   4.21961556077681E-19  -2.43010944900727E-15   5.00000000000000E-02
      5.00000000000000E-02   0.00000000000000E+00   0.00000000000000E+00   2.03802931342704E-06  -5.98684648482737E-31
      2.03802931342704E-06   1.32905538590548E-15
      2.50000000000000E-01
      0.00000000000000E+00   0.00000000000000E+00   0.00000000000000E+00   0.00000000000000E+00  -6.62210882115010E-06
     -9.42028726356065E-30  -6.62210882115010E-06   1.20412611694239E-15   4.50000000000000E-01   4.50000000000000E-01
      0.00000000000000E+00   0.00000000000000E+00   0.00000000000000E+00   0.00000000000000E+00   0.00000000000000E+00
     -1.57250383761131E-17  -4.50000000000000E-01  -4.50000000000000E-01   0.00000000000000E+00   0.00000000000000E+00
      2.59791871953293E-17   1.00407648768833E-29   2.59791871953393E-17  -2.45762360311926E-15   5.00000000000000E-02
      5.00000000000000E-02   0.00000000000000E+00   0.00000000000000E+00   6.62210882112413E-06  -6.20477613322668E-31
      6.62210882112413E-06   1.26922252455299E-15
      3.00000000000000E-01
      0.00000000000000E+00   0.00000000000000E+00   0.00000000000000E+00   0.00000000000000E+00  -1.56264406531012E-05
     -8.41321674585891E-30  -1.56264406531012E-05   1.15738480772944E-15   5.40000000000000E-01   5.40000000000000E-01
      0.00000000000000E+00   0.00000000000000E+00   0.00000000000000E+00   0.00000000000000E+00   0.00000000000000E+00
      1.48190126229145E-16  -4.50000000000000E-01  -4.50000000000000E-01   0.00000000000000E+00   0.00000000000000E+00
     -2.48828090423346E-15   9.08248090887712E-30  -2.48828090423345E-15  -2.52158423741276E-15   5.00000000000000E-02
      5.00000000000000E-02   0.00000000000000E+00   0.00000000000000E+00   1.56264406555894E-05  -6.69264163018213E-31
      1.56264406555894E-05   1.21600930345418E-15
      3.50000000000000E-01
      0.00000000000000E+00   0.00000000000000E+00   0.00000000000000E+00   0.00000000000000E+00  -2.65607527031175E-05
     -1.09964272565846E-29  -2.65607527031175E-05   1.11950539810928E-15   6.30000000000000E-01   6.30000000000000E-01
      0.00000000000000E+00   0.00000000000000E+00   0.00000000000000E+00   0.00000000000000E+00   0.00000000000000E+00
      3.32810166991396E-16  -4.50000000000000E-01  -4.50000000000000E-01   0.00000000000000E+00   0.00000000000000E+00
     -2.36218023671970E-16   1.17885313074392E-29  -2.36218023671958E-16  -2.62495751410876E-15   5.00000000000000E-02
      5.00000000000000E-02   0.00000000000000E+00   0.00000000000000E+00   2.65607527033537E-05  -7.92104050854606E-31
      2.65607527033537E-05   1.17264194900809E-15
      4.00000000000000E-01
      0.00000000000000E+00   0.00000000000000E+00   0.00000000000000E+00   0.00000000000000E+00  -3.68019024381163E-05
     -9.76432972109700E-30  -3.68019024381163E-05   1.08729783288978E-15   7.20000000000000E-01   7.20000000000000E-01
      0.00000000000000E+00   0.00000000000000E+00   0.00000000000000E+00   0.00000000000000E+00   0.00000000000000E+00
      5.31190372208279E-16  -4.50000000000000E-01  -4.50000000000000E-01   0.00000000000000E+00   0.00000000000000E+00
     -1.18687328013999E-18   1.07616055007705E-29  -1.18687328012923E-18  -2.75537453999715E-15   5.00000000000000E-02
      5.00000000000000E-02   0.00000000000000E+00   0.00000000000000E+00   3.68019024381174E-05  -9.97275779673522E-31
      3.68019024381174E-05   1.13688633489909E-15
      4.50000000000000E-01
      0.00000000000000E+00   0.00000000000000E+00   0.00000000000000E+00   0.00000000000000E+00  -4.58820404312320E-05
     -9.60228430558815E-30  -4.58820404312320E-05   1.05849532233877E-15   8.10000000000000E-01   8.10000000000000E-01
      0.00000000000000E+00   0.00000000000000E+00   0.00000000000000E+00   0.00000000000000E+00   0.00000000000000E+00
      7.37541667477927E-16  -4.50000000000000E-01  -4.50000000000000E-01   0.00000000000000E+00   0.00000000000000E+00
     -1.22186239898396E-13   1.02606034976844E-29  -1.22186239898396E-13  -2.90180044176873E-15   5.00000000000000E-02
      5.00000000000000E-02   0.00000000000000E+00   0.00000000000000E+00   4.58820405534182E-05  -6.58319192096271E-31
      4.58820405534182E-05   1.10576345195203E-15
      5.00000000000000E-01
      0.00000000000000E+00   0.00000000000000E+00   0.00000000000000E+00   0.00000000000000E+00  -5.39703646389578E-05
     -1.32773551978182E-29  -5.39703646389578E-05   1.03184092556324E-15   9.00000000000000E-01   9.00000000000000E-01
      0.00000000000000E+00   0.00000000000000E+00   0.00000000000000E+00   0.00000000000000E+00   0.00000000000000E+00
      9.48696079091752E-16  -4.50000000000000E-01  -4.50000000000000E-01   0.00000000000000E+00   0.00000000000000E+00
     -3.21403010664967E-15   1.51894204490831E-29  -3.21403010664965E-15  -3.05801382560730E-15   5.00000000000000E-02
      5.00000000000000E-02   0.00000000000000E+00   0.00000000000000E+00   5.39703646421718E-05  -1.91206525126497E-30
      5.39703646421718E-05   1.07747682095231E-15
      5.50000000000000E-01
      0.00000000000000E+00   0.00000000000000E+00   0.00000000000000E+00   0.00000000000000E+00  -6.12671257081301E-05
     -9.62391373946028E-30  -6.12671257081301E-05   1.00662679623181E-15   9.90000000000000E-01   9.90000000000000E-01
      0.00000000000000E+00   0.00000000000000E+00   0.00000000000000E+00   0.00000000000000E+00   0.00000000000000E+00
      1.16296871913302E-15  -4.50000000000000E-01  -4.50000000000000E-01   0.00000000000000E+00   0.00000000000000E+00
     -1.60716586393008E-16   1.05329893049136E-29  -1.60716586392998E-16  -3.22063014446763E-15   5.00000000000000E-02
      5.00000000000000E-02   0.00000000000000E+00   0.00000000000000E+00   6.12671257082908E-05  -9.09075565453358E-31
      6.12671257082908E-05   1.05103462910280E-15
      6.00000000000000E-01
      0.00000000000000E+00   0.00000000000000E+00   0.00000000000000E+00   0.00000000000000E+00  -6.79280071023923E-05
     -1.07395147752173E-29  -6.79280071023923E-05   9.82430384609932E-16   1.08000000000000E+00   1.08000000000000E+00
      0.00000000000000E+00   0.00000000000000E+00   0.00000000000000E+00   0.00000000000000E+00   0.00000000000000E+00
      1.37939810724214E-15  -4.50000000000000E-01  -4.50000000000000E-01   0.00000000000000E+00   0.00000000000000E+00
     -2.75372287454389E-17   1.18047537915375E-29  -2.75372287454271E-17  -3.38769342800117E-15   5.00000000000000E-02
      5.00000000000000E-02   0.00000000000000E+00   0.00000000000000E+00   6.79280071024198E-05  -1.06523901632019E-30
      6.79280071024198E-05   1.02586493614910E-15
      6.50000000000000E-01
      0.00000000000000E+00   0.00000000000000E+00   0.00000000000000E+00   0.00000000000000E+00  -7.40671486168910E-05
     -1.11579443049328E-29  -7.40671486168910E-05   9.58984440201204E-16   1.17000000000000E+00   1.17000000000000E+00
      0.00000000000000E+00   0.00000000000000E+00   0.00000000000000E+00   0.00000000000000E+00   0.00000000000000E+00
      1.59739603564483E-15  -4.50000000000000E-01  -4.50000000000000E-01   0.00000000000000E+00   0.00000000000000E+00
     -2.03601101072691E-10   1.13107016070044E-29  -2.03601101072691E-10  -3.55799735800782E-15   5.00000000000000E-02
      5.00000000000000E-02   0.00000000000000E+00   0.00000000000000E+00   7.40673522179920E-05  -1.52757302071577E-31
      7.40673522179920E-05   1.00161688216179E-15
      7.00000000000000E-01
      0.00000000000000E+00   0.00000000000000E+00   0.00000000000000E+00   0.00000000000000E+00  -7.97697105605587E-05
     -9.52028967398413E-30  -7.97697105605587E-05   9.36111293559396E-16   1.26000000000000E+00   1.26000000000000E+00
      0.00000000000000E+00   0.00000000000000E+00   0.00000000000000E+00   0.00000000000000E+00   0.00000000000000E+00
      1.81658053465454E-15  -4.50000000000000E-01  -4.50000000000000E-01   0.00000000000000E+00   0.00000000000000E+00
     -7.91460774049401E-11   1.04109715799158E-29  -7.91460774049401E-11  -3.73075469588272E-15   5.00000000000000E-02
      5.00000000000000E-02   0.00000000000000E+00   0.00000000000000E+00   7.97697897066361E-05  -8.90681905931645E-31
      7.97697897066361E-05   9.78062867668788E-16
      7.50000000000000E-01
      0.00000000000000E+00   0.00000000000000E+00   0.00000000000000E+00   0.00000000000000E+00  -8.50992906046485E-05
     -9.82972857276686E-30  -8.50992906046485E-05   9.13687751653581E-16   1.35000000000000E+00   1.35000000000000E+00
      0.00000000000000E+00   0.00000000000000E+00   0.00000000000000E+00   0.00000000000000E+00   0.00000000000000E+00
      2.03669143217093E-15  -4.50000000000000E-01  -4.50000000000000E-01   0.00000000000000E+00   0.00000000000000E+00
     -3.39123352701359E-11   1.14109355743070E-29  -3.39123352701359E-11  -3.90542732075851E-15   5.00000000000000E-02
      5.00000000000000E-02   0.00000000000000E+00   0.00000000000000E+00   8.50993245169838E-05  -1.58120700154017E-30
      8.50993245169838E-05   9.55048136933991E-16
      8.00000000000000E-01
      0.00000000000000E+00   0.00000000000000E+00   0.00000000000000E+00   0.00000000000000E+00  -9.01059092563486E-05
     -8.71411971320106E-30  -9.01059092563486E-05   8.91625313083289E-16   1.44000000000000E+00   1.44000000000000E+00
      0.00000000000000E+00   0.00000000000000E+00   0.00000000000000E+00   0.00000000000000E+00   0.00000000000000E+00
      2.25754450249242E-15  -4.50000000000000E-01  -4.50000000000000E-01   0.00000000000000E+00   0.00000000000000E+00
     -1.57288834974806E-11   1.05339978165655E-29  -1.57288834974806E-11  -4.08163310574696E-15   5.00000000000000E-02
      5.00000000000000E-02   0.00000000000000E+00   0.00000000000000E+00   9.01059249852320E-05  -1.81987810336446E-30
      9.01059249852320E-05   9.32463290171244E-16
      8.50000000000000E-01
      0.00000000000000E+00   0.00000000000000E+00   0.00000000000000E+00   0.00000000000000E+00  -9.48294344644609E-05
     -1.04070594224577E-29  -9.48294344644609E-05   8.69858568898848E-16   1.53000000000000E+00   1.53000000000000E+00
      0.00000000000000E+00   0.00000000000000E+00   0.00000000000000E+00   0.00000000000000E+00   0.00000000000000E+00
      2.47900441739825E-15  -4.50000000000000E-01  -4.50000000000000E-01   0.00000000000000E+00   0.00000000000000E+00
     -7.79365367386402E-12   1.17953911627836E-29  -7.79365367386402E-12  -4.25909147452585E-15   5.00000000000000E-02
      5.00000000000000E-02   0.00000000000000E+00   0.00000000000000E+00   9.48294422581146E-05  -1.38833174032587E-30
      9.48294422581146E-05   9.10228488228761E-16
      9.00000000000000E-01
      0.00000000000000E+00   0.00000000000000E+00   0.00000000000000E+00   0.00000000000000E+00  -9.93020017502175E-05
     -1.15528000279190E-29  -9.93020017502175E-05   8.48337938480578E-16   1.62000000000000E+00   1.62000000000000E+00
      0.00000000000000E+00   0.00000000000000E+00   0.00000000000000E+00   0.00000000000000E+00   0.00000000000000E+00
      2.70096938072696E-15  -4.50000000000000E-01  -4.50000000000000E-01   0.00000000000000E+00   0.00000000000000E+00
     -4.08354939873212E-12   1.28757101822100E-29  -4.08354939873212E-12  -4.43759111031647E-15   5.00000000000000E-02
      5.00000000000000E-02   0.00000000000000E+00   0.00000000000000E+00   9.93020058337669E-05  -1.32291015429093E-30
      9.93020058337669E-05   8.88283791108930E-16
      9.50000000000000E-01
      0.00000000000000E+00   0.00000000000000E+00   0.00000000000000E+00   0.00000000000000E+00  -1.03550100657682E-04
     -1.12723918581667E-29  -1.03550100657682E-04   8.27025030680337E-16   1.71000000000000E+00   1.71000000000000E+00
      0.00000000000000E+00   0.00000000000000E+00   0.00000000000000E+00   0.00000000000000E+00   0.00000000000000E+00
      2.92336093251010E-15  -4.50000000000000E-01  -4.50000000000000E-01   0.00000000000000E+00   0.00000000000000E+00
     -2.24436369547680E-12   1.19308991553378E-29  -2.24436369547680E-12  -4.61696912587095E-15   5.00000000000000E-02
      5.00000000000000E-02   0.00000000000000E+00   0.00000000000000E+00   1.03550102902046E-04  -6.58507297171105E-31
      1.03550102902046E-04   8.66583162680501E-16
      1.00000000000000E+00
      0.00000000000000E+00   0.00000000000000E+00   0.00000000000000E+00   0.00000000000000E+00  -1.07595896209273E-04
     -9.34522570798805E-30  -1.07595896209273E-04   8.05889567553255E-16   1.80000000000000E+00   1.80000000000000E+00
      0.00000000000000E+00   0.00000000000000E+00   0.00000000000000E+00   0.00000000000000E+00   0.00000000000000E+00
      3.14611738893793E-15  -4.50000000000000E-01  -4.50000000000000E-01   0.00000000000000E+00   0.00000000000000E+00
     -1.28562123055055E-12   9.10580387851322E-30  -1.28562123055055E-12  -4.79709749135572E-15   5.00000000000000E-02
      5.00000000000000E-02   0.00000000000000E+00   0.00000000000000E+00   1.07595897494894E-04   2.39421829474827E-31
      1.07595897494894E-04   8.45090534864538E-16
}
