DF-ISE text

Info {
  version   = 1.0
  type      = xyplot
  datasets  = [
    "time"
    "source OuterVoltage" "source InnerVoltage" "source QuasiFermiPotential" "source DisplacementCurrent" "source eCurrent"
    "source hCurrent" "source TotalCurrent" "source Charge" "gate OuterVoltage" "gate InnerVoltage"
    "gate QuasiFermiPotential" "gate DisplacementCurrent" "gate eCurrent" "gate hCurrent" "gate TotalCurrent"
    "gate Charge" "substrate OuterVoltage" "substrate InnerVoltage" "substrate QuasiFermiPotential" "substrate DisplacementCurrent"
    "substrate eCurrent" "substrate hCurrent" "substrate TotalCurrent" "substrate Charge" "drain OuterVoltage"
    "drain InnerVoltage" "drain QuasiFermiPotential" "drain DisplacementCurrent" "drain eCurrent" "drain hCurrent"
    "drain TotalCurrent" "drain Charge" ]
  functions = [
    Time
    OuterVoltage InnerVoltage QuasiFermiPotential DisplacementCurrent eCurrent
    hCurrent TotalCurrent Charge OuterVoltage InnerVoltage
    QuasiFermiPotential DisplacementCurrent eCurrent hCurrent TotalCurrent
    Charge OuterVoltage InnerVoltage QuasiFermiPotential DisplacementCurrent
    eCurrent hCurrent TotalCurrent Charge OuterVoltage
    InnerVoltage QuasiFermiPotential DisplacementCurrent eCurrent hCurrent
    TotalCurrent Charge ]
}

Data {
      5.00000000000000E-02
      0.00000000000000E+00   0.00000000000000E+00   0.00000000000000E+00   0.00000000000000E+00  -3.32300602556636E-15
     -2.44061263232758E-25  -3.32300602581042E-15   1.23251768732888E-15   9.00000000000000E-02   9.00000000000000E-02
      0.00000000000000E+00   0.00000000000000E+00   0.00000000000000E+00   0.00000000000000E+00   0.00000000000000E+00
      3.97850638354994E-16   0.00000000000000E+00   0.00000000000000E+00   0.00000000000000E+00   0.00000000000000E+00
      2.72225654750415E-15   2.44061258220198E-25   2.72225654774821E-15  -4.84380499318945E-15   1.80000000000000E+00
      1.80000000000000E+00   0.00000000000000E+00   0.00000000000000E+00   6.00749478062210E-16   5.01255937085445E-33
      6.00749478062210E-16   3.21343666750558E-15
      1.00000000000000E-01
      0.00000000000000E+00   0.00000000000000E+00   0.00000000000000E+00   0.00000000000000E+00   5.29790588593875E-13
     -2.56928656035781E-25   5.29790588593618E-13   1.17256125330401E-15   1.80000000000000E-01   1.80000000000000E-01
      0.00000000000000E+00   0.00000000000000E+00   0.00000000000000E+00   0.00000000000000E+00   0.00000000000000E+00
      6.92467857053621E-16   0.00000000000000E+00   0.00000000000000E+00   0.00000000000000E+00   0.00000000000000E+00
     -5.38663859930055E-13   2.56928655738453E-25  -5.38663859929798E-13  -5.03794896901363E-15   1.80000000000000E+00
      1.80000000000000E+00   0.00000000000000E+00   0.00000000000000E+00   8.87327133618016E-15   2.97328519604796E-34
      8.87327133618016E-15   3.17291985865601E-15
      1.50000000000000E-01
      0.00000000000000E+00   0.00000000000000E+00   0.00000000000000E+00   0.00000000000000E+00  -1.09398523665845E-13
     -2.36830689530513E-25  -1.09398523666081E-13   1.11110000255343E-15   2.70000000000000E-01   2.70000000000000E-01
      0.00000000000000E+00   0.00000000000000E+00   0.00000000000000E+00   0.00000000000000E+00   0.00000000000000E+00
      9.77525703125225E-16   0.00000000000000E+00   0.00000000000000E+00   0.00000000000000E+00   0.00000000000000E+00
     -2.84127665586555E-14   2.36830689495352E-25  -2.84127665584187E-14  -5.22056350420140E-15   1.80000000000000E+00
      1.80000000000000E+00   0.00000000000000E+00   0.00000000000000E+00   1.37811290224500E-13   3.51608795408903E-35
      1.37811290224500E-13   3.13193779852275E-15
      2.00000000000000E-01
      0.00000000000000E+00   0.00000000000000E+00   0.00000000000000E+00   0.00000000000000E+00  -2.24874586117618E-12
     -1.97773300378434E-25  -2.24874586117637E-12   1.04942815162357E-15   3.60000000000000E-01   3.60000000000000E-01
      0.00000000000000E+00   0.00000000000000E+00   0.00000000000000E+00   0.00000000000000E+00   0.00000000000000E+00
      1.25438526389877E-15   0.00000000000000E+00   0.00000000000000E+00   0.00000000000000E+00   0.00000000000000E+00
     -6.06200931932194E-19   1.97773300376967E-25  -6.06200734158894E-19  -5.39432144701890E-15   1.80000000000000E+00
      1.80000000000000E+00   0.00000000000000E+00   0.00000000000000E+00   2.24874646737711E-12   1.46766907017920E-36
      2.24874646737711E-12   3.09050803149656E-15
      2.50000000000000E-01
      0.00000000000000E+00   0.00000000000000E+00   0.00000000000000E+00   0.00000000000000E+00  -3.83161848655354E-11
     -2.07676976980598E-25  -3.83161848655356E-11   9.90930679727918E-16   4.50000000000000E-01   4.50000000000000E-01
      0.00000000000000E+00   0.00000000000000E+00   0.00000000000000E+00   0.00000000000000E+00   0.00000000000000E+00
      1.52757304212972E-15   0.00000000000000E+00   0.00000000000000E+00   0.00000000000000E+00   0.00000000000000E+00
      1.16600864414572E-17   2.07676976980485E-25   1.16600866491342E-17  -5.56708319841882E-15   1.80000000000000E+00
      1.80000000000000E+00   0.00000000000000E+00   0.00000000000000E+00   3.83161732054490E-11   1.12820311814701E-37
      3.83161732054490E-11   3.04857947656118E-15
      3.00000000000000E-01
      0.00000000000000E+00   0.00000000000000E+00   0.00000000000000E+00   0.00000000000000E+00  -6.72951718763006E-10
     -2.28806796202640E-25  -6.72951718763006E-10   9.39423808895329E-16   5.40000000000000E-01   5.40000000000000E-01
      0.00000000000000E+00   0.00000000000000E+00   0.00000000000000E+00   0.00000000000000E+00   0.00000000000000E+00
      1.80400965839101E-15   0.00000000000000E+00   0.00000000000000E+00   0.00000000000000E+00   0.00000000000000E+00
     -1.74110790909723E-15   2.28806796202632E-25  -1.74110790886842E-15  -5.74942731350507E-15   1.80000000000000E+00
      1.80000000000000E+00   0.00000000000000E+00   0.00000000000000E+00   6.72953459870915E-10   7.73395003413899E-39
      6.72953459870915E-10   3.00599384621874E-15
      3.50000000000000E-01
      0.00000000000000E+00   0.00000000000000E+00   0.00000000000000E+00   0.00000000000000E+00  -1.19061929796231E-08
     -2.07401586518198E-25  -1.19061929796231E-08   8.95744258286196E-16   6.30000000000000E-01   6.30000000000000E-01
      0.00000000000000E+00   0.00000000000000E+00   0.00000000000000E+00   0.00000000000000E+00   0.00000000000000E+00
      2.09216068012818E-15   0.00000000000000E+00   0.00000000000000E+00   0.00000000000000E+00   0.00000000000000E+00
     -1.54188477998428E-12   2.07401586518197E-25  -1.54188477998408E-12  -5.95045994556241E-15   1.80000000000000E+00
      1.80000000000000E+00   0.00000000000000E+00   0.00000000000000E+00   1.19077348644031E-08   8.46391851075977E-40
      1.19077348644031E-08   2.96255500714803E-15
      4.00000000000000E-01
      0.00000000000000E+00   0.00000000000000E+00   0.00000000000000E+00   0.00000000000000E+00  -1.77561847016399E-07
     -2.09610829093178E-25  -1.77561847016399E-07   8.58474336782320E-16   7.20000000000000E-01   7.20000000000000E-01
      0.00000000000000E+00   0.00000000000000E+00   0.00000000000000E+00   0.00000000000000E+00   0.00000000000000E+00
      2.43242538255139E-15   0.00000000000000E+00   0.00000000000000E+00   0.00000000000000E+00   0.00000000000000E+00
     -5.02581326937615E-19   2.09610829093178E-25  -5.02581117326786E-19  -6.20905222764813E-15   1.80000000000000E+00
      1.80000000000000E+00   0.00000000000000E+00   0.00000000000000E+00   1.77561847016901E-07   2.56992271197507E-41
      1.77561847016901E-07   2.91815250831443E-15
      4.50000000000000E-01
      0.00000000000000E+00   0.00000000000000E+00   0.00000000000000E+00   0.00000000000000E+00  -1.26505751458255E-06
     -2.27062115550757E-25  -1.26505751458255E-06   8.25439900118114E-16   8.10000000000000E-01   8.10000000000000E-01
      0.00000000000000E+00   0.00000000000000E+00   0.00000000000000E+00   0.00000000000000E+00   0.00000000000000E+00
      2.92237792892120E-15   0.00000000000000E+00   0.00000000000000E+00   0.00000000000000E+00   0.00000000000000E+00
     -1.20572008265278E-18   2.27062115550757E-25  -1.20571985559066E-18  -6.62047396814800E-15   1.80000000000000E+00
      1.80000000000000E+00   0.00000000000000E+00   0.00000000000000E+00   1.26505751458376E-06   6.41023923385737E-42
      1.26505751458376E-06   2.87265613910869E-15
      5.00000000000000E-01
      0.00000000000000E+00   0.00000000000000E+00   0.00000000000000E+00   0.00000000000000E+00  -4.24051121929526E-06
     -2.03201098152794E-25  -4.24051121929526E-06   7.94949252850628E-16   9.00000000000000E-01   9.00000000000000E-01
      0.00000000000000E+00   0.00000000000000E+00   0.00000000000000E+00   0.00000000000000E+00   0.00000000000000E+00
      3.53417108331834E-15   0.00000000000000E+00   0.00000000000000E+00   0.00000000000000E+00   0.00000000000000E+00
      5.18882035500481E-18   2.03201098152795E-25   5.18882055820591E-18  -7.15504810364635E-15   1.80000000000000E+00
      1.80000000000000E+00   0.00000000000000E+00   0.00000000000000E+00   4.24051121929008E-06  -2.55715028978899E-43
      4.24051121929008E-06   2.82592776747739E-15
      5.50000000000000E-01
      0.00000000000000E+00   0.00000000000000E+00   0.00000000000000E+00   0.00000000000000E+00  -9.46481412412582E-06
     -2.12480028939002E-25  -9.46481412412582E-06   7.66092536509814E-16   9.90000000000000E-01   9.90000000000000E-01
      0.00000000000000E+00   0.00000000000000E+00   0.00000000000000E+00   0.00000000000000E+00   0.00000000000000E+00
      4.20240329473441E-15   0.00000000000000E+00   0.00000000000000E+00   0.00000000000000E+00   0.00000000000000E+00
      2.00986997329562E-16   2.12480028939002E-25   2.00986997542042E-16  -7.74644962040180E-15   1.80000000000000E+00
      1.80000000000000E+00   0.00000000000000E+00   0.00000000000000E+00   9.46481412392483E-06   9.95305172766483E-44
      9.46481412392483E-06   2.77795378915757E-15
      6.00000000000000E-01
      0.00000000000000E+00   0.00000000000000E+00   0.00000000000000E+00   0.00000000000000E+00  -1.69760420710573E-05
     -2.14851478433181E-25  -1.69760420710573E-05   7.38377674472790E-16   1.08000000000000E+00   1.08000000000000E+00
      0.00000000000000E+00   0.00000000000000E+00   0.00000000000000E+00   0.00000000000000E+00   0.00000000000000E+00
      4.90058025828714E-15   0.00000000000000E+00   0.00000000000000E+00   0.00000000000000E+00   0.00000000000000E+00
     -2.23237010581984E-18   2.14851478433181E-25  -2.23236989096836E-18  -8.36770895105449E-15   1.80000000000000E+00
      1.80000000000000E+00   0.00000000000000E+00   0.00000000000000E+00   1.69760420710596E-05  -2.12188681674821E-42
      1.69760420710596E-05   2.72875101829456E-15
      6.50000000000000E-01
      0.00000000000000E+00   0.00000000000000E+00   0.00000000000000E+00   0.00000000000000E+00  -2.67081087461396E-05
     -2.05730942551663E-25  -2.67081087461396E-05   7.11508678677069E-16   1.17000000000000E+00   1.17000000000000E+00
      0.00000000000000E+00   0.00000000000000E+00   0.00000000000000E+00   0.00000000000000E+00   0.00000000000000E+00
      5.61833053616558E-15   0.00000000000000E+00   0.00000000000000E+00   0.00000000000000E+00   0.00000000000000E+00
     -2.16750864175237E-18   2.05730942551663E-25  -2.16750843602143E-18  -9.00819399099585E-15   1.80000000000000E+00
      1.80000000000000E+00   0.00000000000000E+00   0.00000000000000E+00   2.67081087461418E-05  -4.97252951016810E-43
      2.67081087461418E-05   2.67835477615321E-15
      7.00000000000000E-01
      0.00000000000000E+00   0.00000000000000E+00   0.00000000000000E+00   0.00000000000000E+00  -3.85596644539146E-05
     -1.94324391057384E-25  -3.85596644539146E-05   6.85293110873517E-16   1.26000000000000E+00   1.26000000000000E+00
      0.00000000000000E+00   0.00000000000000E+00   0.00000000000000E+00   0.00000000000000E+00   0.00000000000000E+00
      6.35080624071756E-15   0.00000000000000E+00   0.00000000000000E+00   0.00000000000000E+00   0.00000000000000E+00
     -8.40636352117585E-18   1.94324391057384E-25  -8.40636332685146E-18  -9.66295973458069E-15   1.80000000000000E+00
      1.80000000000000E+00   0.00000000000000E+00   0.00000000000000E+00   3.85596644539230E-05  -9.06599945645747E-43
      3.85596644539230E-05   2.62686038298962E-15
      7.50000000000000E-01
      0.00000000000000E+00   0.00000000000000E+00   0.00000000000000E+00   0.00000000000000E+00  -5.24179130977899E-05
     -1.98018645598415E-25  -5.24179130977899E-05   6.59598658365704E-16   1.35000000000000E+00   1.35000000000000E+00
      0.00000000000000E+00   0.00000000000000E+00   0.00000000000000E+00   0.00000000000000E+00   0.00000000000000E+00
      7.09541220925185E-15   0.00000000000000E+00   0.00000000000000E+00   0.00000000000000E+00   0.00000000000000E+00
      5.15350641136182E-18   1.98018645598415E-25   5.15350660938047E-18  -1.03293955100562E-14   1.80000000000000E+00
      1.80000000000000E+00   0.00000000000000E+00   0.00000000000000E+00   5.24179130977848E-05  -9.30048597774153E-43
      5.24179130977848E-05   2.57438464243868E-15
      8.00000000000000E-01
      0.00000000000000E+00   0.00000000000000E+00   0.00000000000000E+00   0.00000000000000E+00  -6.81680631763622E-05
     -2.14240027306398E-25  -6.81680631763622E-05   6.34330354431311E-16   1.44000000000000E+00   1.44000000000000E+00
      0.00000000000000E+00   0.00000000000000E+00   0.00000000000000E+00   0.00000000000000E+00   0.00000000000000E+00
      7.85067870310135E-15   0.00000000000000E+00   0.00000000000000E+00   0.00000000000000E+00   0.00000000000000E+00
      3.06764231791406E-18   2.14240027306398E-25   3.06764253215409E-18  -1.10059849088766E-14   1.80000000000000E+00
      1.80000000000000E+00   0.00000000000000E+00   0.00000000000000E+00   6.81680631763591E-05  -8.71088336733131E-43
      6.81680631763591E-05   2.52097585134394E-15
      8.50000000000000E-01
      0.00000000000000E+00   0.00000000000000E+00   0.00000000000000E+00   0.00000000000000E+00  -8.56971929252670E-05
     -1.95673573044293E-25  -8.56971929252670E-05   6.09417630271609E-16   1.53000000000000E+00   1.53000000000000E+00
      0.00000000000000E+00   0.00000000000000E+00   0.00000000000000E+00   0.00000000000000E+00   0.00000000000000E+00
      8.61582546293241E-15   0.00000000000000E+00   0.00000000000000E+00   0.00000000000000E+00   0.00000000000000E+00
      1.09207126675708E-17   1.95673573044293E-25   1.09207128632444E-17  -1.16918681044639E-14   1.80000000000000E+00
      1.80000000000000E+00   0.00000000000000E+00   0.00000000000000E+00   8.56971929252559E-05  -1.40330594267658E-43
      8.56971929252559E-05   2.46662501125984E-15
      9.00000000000000E-01
      0.00000000000000E+00   0.00000000000000E+00   0.00000000000000E+00   0.00000000000000E+00  -1.04896990755203E-04
     -1.85793386550471E-25  -1.04896990755203E-04   5.84806552118920E-16   1.62000000000000E+00   1.62000000000000E+00
      0.00000000000000E+00   0.00000000000000E+00   0.00000000000000E+00   0.00000000000000E+00   0.00000000000000E+00
      9.39024874542245E-15   0.00000000000000E+00   0.00000000000000E+00   0.00000000000000E+00   0.00000000000000E+00
      2.94639650552287E-17   1.85793386550472E-25   2.94639652410221E-17  -1.23864069677271E-14   1.80000000000000E+00
      1.80000000000000E+00   0.00000000000000E+00   0.00000000000000E+00   1.04896990755174E-04  -6.13301336729834E-43
      1.04896990755174E-04   2.41135167018576E-15
      9.50000000000000E-01
      0.00000000000000E+00   0.00000000000000E+00   0.00000000000000E+00   0.00000000000000E+00  -1.25664829194998E-04
     -2.00161600561431E-25  -1.25664829194998E-04   5.60454915281618E-16   1.71000000000000E+00   1.71000000000000E+00
      0.00000000000000E+00   0.00000000000000E+00   0.00000000000000E+00   0.00000000000000E+00   0.00000000000000E+00
      1.01735345024039E-14   0.00000000000000E+00   0.00000000000000E+00   0.00000000000000E+00   0.00000000000000E+00
      2.21402359637223E-17   2.00161600561431E-25   2.21402361638839E-17  -1.30891631122363E-14   1.80000000000000E+00
      1.80000000000000E+00   0.00000000000000E+00   0.00000000000000E+00   1.25664829194975E-04  -5.71175772017817E-43
      1.25664829194975E-04   2.35517369455075E-15
      1.00000000000000E+00
      0.00000000000000E+00   0.00000000000000E+00   0.00000000000000E+00   0.00000000000000E+00  -1.47904589491578E-04
     -2.10852502378104E-25  -1.47904589491578E-04   5.36329108982156E-16   1.80000000000000E+00   1.80000000000000E+00
      0.00000000000000E+00   0.00000000000000E+00   0.00000000000000E+00   0.00000000000000E+00   0.00000000000000E+00
      1.09655073229288E-14   0.00000000000000E+00   0.00000000000000E+00   0.00000000000000E+00   0.00000000000000E+00
      2.22213246110869E-15   2.10852502378104E-25   2.22213246131954E-15  -1.37997934703228E-14   1.80000000000000E+00
      1.80000000000000E+00   0.00000000000000E+00   0.00000000000000E+00   1.47904589489356E-04  -2.69707717496896E-43
      1.47904589489356E-04   2.29795703841187E-15
}
