DF-ISE text

Info {
  version   = 1.0
  type      = xyplot
  datasets  = [
    "time"
    "source OuterVoltage" "source InnerVoltage" "source QuasiFermiPotential" "source DisplacementCurrent" "source eCurrent"
    "source hCurrent" "source TotalCurrent" "source Charge" "gate OuterVoltage" "gate InnerVoltage"
    "gate QuasiFermiPotential" "gate DisplacementCurrent" "gate eCurrent" "gate hCurrent" "gate TotalCurrent"
    "gate Charge" "substrate OuterVoltage" "substrate InnerVoltage" "substrate QuasiFermiPotential" "substrate DisplacementCurrent"
    "substrate eCurrent" "substrate hCurrent" "substrate TotalCurrent" "substrate Charge" "drain OuterVoltage"
    "drain InnerVoltage" "drain QuasiFermiPotential" "drain DisplacementCurrent" "drain eCurrent" "drain hCurrent"
    "drain TotalCurrent" "drain Charge" ]
  functions = [
    Time
    OuterVoltage InnerVoltage QuasiFermiPotential DisplacementCurrent eCurrent
    hCurrent TotalCurrent Charge OuterVoltage InnerVoltage
    QuasiFermiPotential DisplacementCurrent eCurrent hCurrent TotalCurrent
    Charge OuterVoltage InnerVoltage QuasiFermiPotential DisplacementCurrent
    eCurrent hCurrent TotalCurrent Charge OuterVoltage
    InnerVoltage QuasiFermiPotential DisplacementCurrent eCurrent hCurrent
    TotalCurrent Charge ]
}

Data {
      5.00000000000000E-02
      0.00000000000000E+00   0.00000000000000E+00   0.00000000000000E+00   0.00000000000000E+00  -1.79862072377630E-14
      3.14488171551574E-34  -1.79862072377630E-14   1.78411427495937E-15   9.00000000000000E-02   9.00000000000000E-02
      0.00000000000000E+00   0.00000000000000E+00   0.00000000000000E+00   0.00000000000000E+00   0.00000000000000E+00
     -1.19901317476548E-16  -9.00000000000000E-01  -9.00000000000000E-01   0.00000000000000E+00   0.00000000000000E+00
      1.79812549573904E-14  -3.14488171548211E-34   1.79812549573904E-14  -5.24736584538166E-15   1.80000000000000E+00
      1.80000000000000E+00   0.00000000000000E+00   0.00000000000000E+00   4.95228037262104E-18  -3.36282205169622E-45
      4.95228037262104E-18   3.58315288789884E-15
      1.00000000000000E-01
      0.00000000000000E+00   0.00000000000000E+00   0.00000000000000E+00   0.00000000000000E+00   7.89031121893254E-15
      4.57659138584922E-34   7.89031121893254E-15   1.72633628515759E-15   1.80000000000000E-01   1.80000000000000E-01
      0.00000000000000E+00   0.00000000000000E+00   0.00000000000000E+00   0.00000000000000E+00   0.00000000000000E+00
      2.16312577729269E-17  -9.00000000000000E-01  -9.00000000000000E-01   0.00000000000000E+00   0.00000000000000E+00
     -7.98424969186768E-15  -4.57659138584808E-34  -7.98424969186768E-15  -5.29201784207467E-15   1.80000000000000E+00
      1.80000000000000E+00   0.00000000000000E+00   0.00000000000000E+00   9.39384729351354E-17  -1.13307466415245E-46
      9.39384729351354E-17   3.54405029914415E-15
      1.50000000000000E-01
      0.00000000000000E+00   0.00000000000000E+00   0.00000000000000E+00   0.00000000000000E+00   3.10032782246728E-14
      4.36036643162792E-34   3.10032782246728E-14   1.66791133663813E-15   2.70000000000000E-01   2.70000000000000E-01
      0.00000000000000E+00   0.00000000000000E+00   0.00000000000000E+00   0.00000000000000E+00   0.00000000000000E+00
      1.63928507912058E-16  -9.00000000000000E-01  -9.00000000000000E-01   0.00000000000000E+00   0.00000000000000E+00
     -3.29172354597400E-14  -4.36036643162791E-34  -3.29172354597400E-14  -5.33653750757100E-15   1.80000000000000E+00
      1.80000000000000E+00   0.00000000000000E+00   0.00000000000000E+00   1.91395723506722E-15  -1.04323127940653E-48
      1.91395723506722E-15   3.50469766302082E-15
      2.00000000000000E-01
      0.00000000000000E+00   0.00000000000000E+00   0.00000000000000E+00   0.00000000000000E+00   2.34986593109035E-14
      4.33366398685724E-34   2.34986593109035E-14   1.61024770039391E-15   3.60000000000000E-01   3.60000000000000E-01
      0.00000000000000E+00   0.00000000000000E+00   0.00000000000000E+00   0.00000000000000E+00   0.00000000000000E+00
      3.08497349889345E-16  -9.00000000000000E-01  -9.00000000000000E-01   0.00000000000000E+00   0.00000000000000E+00
     -6.29972893476581E-14  -4.33366398685723E-34  -6.29972893476581E-14  -5.38374965313801E-15   1.80000000000000E+00
      1.80000000000000E+00   0.00000000000000E+00   0.00000000000000E+00   3.94986300367546E-14  -4.32949925610473E-49
      3.94986300367546E-14   3.46500460285475E-15
      2.50000000000000E-01
      0.00000000000000E+00   0.00000000000000E+00   0.00000000000000E+00   0.00000000000000E+00  -8.22942234740938E-13
      4.31615100932750E-34  -8.22942234740938E-13   1.55678140344896E-15   4.50000000000000E-01   4.50000000000000E-01
      0.00000000000000E+00   0.00000000000000E+00   0.00000000000000E+00   0.00000000000000E+00   0.00000000000000E+00
      4.58631238274335E-16  -9.00000000000000E-01  -9.00000000000000E-01   0.00000000000000E+00   0.00000000000000E+00
      2.94984600872109E-18  -4.31615100932750E-34   2.94984600872109E-18  -5.44021453391100E-15   1.80000000000000E+00
      1.80000000000000E+00   0.00000000000000E+00   0.00000000000000E+00   8.22939284894929E-13   1.37029880440177E-50
      8.22939284894929E-13   3.42480189218771E-15
      3.00000000000000E-01
      0.00000000000000E+00   0.00000000000000E+00   0.00000000000000E+00   0.00000000000000E+00  -1.73008465942383E-11
      7.40539260477330E-34  -1.73008465942383E-11   1.51102801552073E-15   5.40000000000000E-01   5.40000000000000E-01
      0.00000000000000E+00   0.00000000000000E+00   0.00000000000000E+00   0.00000000000000E+00   0.00000000000000E+00
      6.17873452772100E-16  -9.00000000000000E-01  -9.00000000000000E-01   0.00000000000000E+00   0.00000000000000E+00
     -1.67439107177758E-15  -7.40539260477331E-34  -1.67439107177758E-15  -5.51278196926977E-15   1.80000000000000E+00
      1.80000000000000E+00   0.00000000000000E+00   0.00000000000000E+00   1.73025209853100E-11  -1.95634671852387E-51
      1.73025209853100E-11   3.38388050097694E-15
      3.50000000000000E-01
      0.00000000000000E+00   0.00000000000000E+00   0.00000000000000E+00   0.00000000000000E+00  -3.65286223568785E-10
      2.91404543792051E-34  -3.65286223568785E-10   1.47309697895445E-15   6.30000000000000E-01   6.30000000000000E-01
      0.00000000000000E+00   0.00000000000000E+00   0.00000000000000E+00   0.00000000000000E+00   0.00000000000000E+00
      7.87970780265968E-16  -9.00000000000000E-01  -9.00000000000000E-01   0.00000000000000E+00   0.00000000000000E+00
     -1.42458981275389E-12  -2.91404543792051E-34  -1.42458981275389E-12  -5.60316644662347E-15   1.80000000000000E+00
      1.80000000000000E+00   0.00000000000000E+00   0.00000000000000E+00   3.66710813381539E-10   1.79536311127579E-51
      3.66710813381539E-10   3.34209868740305E-15
      4.00000000000000E-01
      0.00000000000000E+00   0.00000000000000E+00   0.00000000000000E+00   0.00000000000000E+00  -7.77860119118768E-09
      4.31381206122780E-34  -7.77860119118768E-09   1.44130573881900E-15   7.20000000000000E-01   7.20000000000000E-01
      0.00000000000000E+00   0.00000000000000E+00   0.00000000000000E+00   0.00000000000000E+00   0.00000000000000E+00
      9.71025610247427E-16  -9.00000000000000E-01  -9.00000000000000E-01   0.00000000000000E+00   0.00000000000000E+00
      1.64424500323722E-18  -4.31381206122781E-34   1.64424500323722E-18  -5.71176378447655E-15   1.80000000000000E+00
      1.80000000000000E+00   0.00000000000000E+00   0.00000000000000E+00   7.77860118954344E-09   9.73868241968813E-51
      7.77860118954344E-09   3.29943243541013E-15
      4.50000000000000E-01
      0.00000000000000E+00   0.00000000000000E+00   0.00000000000000E+00   0.00000000000000E+00  -1.52906183269128E-07
      3.81857658872060E-34  -1.52906183269128E-07   1.41412920904162E-15   8.10000000000000E-01   8.10000000000000E-01
      0.00000000000000E+00   0.00000000000000E+00   0.00000000000000E+00   0.00000000000000E+00   0.00000000000000E+00
      1.17470833498540E-15  -9.00000000000000E-01  -9.00000000000000E-01   0.00000000000000E+00   0.00000000000000E+00
     -7.19342993736469E-18  -3.81857658872060E-34  -7.19342993736469E-18  -5.84473600479562E-15   1.80000000000000E+00
      1.80000000000000E+00   0.00000000000000E+00   0.00000000000000E+00   1.52906183276321E-07   7.43767797092952E-51
      1.52906183276321E-07   3.25589846076861E-15
      5.00000000000000E-01
      0.00000000000000E+00   0.00000000000000E+00   0.00000000000000E+00   0.00000000000000E+00  -1.72432846126443E-06
      6.34841123168825E-34  -1.72432846126443E-06   1.39020544971866E-15   9.00000000000000E-01   9.00000000000000E-01
      0.00000000000000E+00   0.00000000000000E+00   0.00000000000000E+00   0.00000000000000E+00   0.00000000000000E+00
      1.42346871473301E-15  -9.00000000000000E-01  -9.00000000000000E-01   0.00000000000000E+00   0.00000000000000E+00
     -6.83938930771108E-18  -6.34841123168825E-34  -6.83938930771108E-18  -6.02485895610028E-15   1.80000000000000E+00
      1.80000000000000E+00   0.00000000000000E+00   0.00000000000000E+00   1.72432846127127E-06   8.36909484159749E-51
      1.72432846127127E-06   3.21118479164860E-15
      5.50000000000000E-01
      0.00000000000000E+00   0.00000000000000E+00   0.00000000000000E+00   0.00000000000000E+00  -7.54683824891957E-06
      7.98285369997761E-34  -7.54683824891957E-06   1.36836923490369E-15   9.90000000000000E-01   9.90000000000000E-01
      0.00000000000000E+00   0.00000000000000E+00   0.00000000000000E+00   0.00000000000000E+00   0.00000000000000E+00
      1.72645384069500E-15  -9.00000000000000E-01  -9.00000000000000E-01   0.00000000000000E+00   0.00000000000000E+00
      6.24707118011022E-18  -7.98285369997761E-34   6.24707118011022E-18  -6.25927937038832E-15   1.80000000000000E+00
      1.80000000000000E+00   0.00000000000000E+00   0.00000000000000E+00   7.54683824891332E-06   2.00391245159333E-51
      7.54683824891332E-06   3.16445629478963E-15
      6.00000000000000E-01
      0.00000000000000E+00   0.00000000000000E+00   0.00000000000000E+00   0.00000000000000E+00  -1.86092319334626E-05
      5.01760644582786E-34  -1.86092319334626E-05   1.34789459096135E-15   1.08000000000000E+00   1.08000000000000E+00
      0.00000000000000E+00   0.00000000000000E+00   0.00000000000000E+00   0.00000000000000E+00   0.00000000000000E+00
      2.06231229248070E-15  -9.00000000000000E-01  -9.00000000000000E-01   0.00000000000000E+00   0.00000000000000E+00
      6.47681910071072E-15  -5.01760644582786E-34   6.47681910071072E-15  -6.52552446152837E-15   1.80000000000000E+00
      1.80000000000000E+00   0.00000000000000E+00   0.00000000000000E+00   1.86092319269858E-05   5.63514021045984E-51
      1.86092319269858E-05   3.11531757808632E-15
      6.50000000000000E-01
      0.00000000000000E+00   0.00000000000000E+00   0.00000000000000E+00   0.00000000000000E+00  -3.44986993097347E-05
      3.03665048904264E-34  -3.44986993097347E-05   1.32839568027186E-15   1.17000000000000E+00   1.17000000000000E+00
      0.00000000000000E+00   0.00000000000000E+00   0.00000000000000E+00   0.00000000000000E+00   0.00000000000000E+00
      2.41853795261855E-15  -9.00000000000000E-01  -9.00000000000000E-01   0.00000000000000E+00   0.00000000000000E+00
     -3.03072686769994E-17  -3.03665048904264E-34  -3.03072686769994E-17  -6.81082389062290E-15   1.80000000000000E+00
      1.80000000000000E+00   0.00000000000000E+00   0.00000000000000E+00   3.44986993097650E-05   7.04190458897535E-51
      3.44986993097650E-05   3.06389025773249E-15
      7.00000000000000E-01
      0.00000000000000E+00   0.00000000000000E+00   0.00000000000000E+00   0.00000000000000E+00  -5.45982387059497E-05
      6.48026816191748E-34  -5.45982387059497E-05   1.30963887626924E-15   1.26000000000000E+00   1.26000000000000E+00
      0.00000000000000E+00   0.00000000000000E+00   0.00000000000000E+00   0.00000000000000E+00   0.00000000000000E+00
      2.78948390763877E-15  -9.00000000000000E-01  -9.00000000000000E-01   0.00000000000000E+00   0.00000000000000E+00
      1.74925751162280E-17  -6.48026816191749E-34   1.74925751162280E-17  -7.10973202867407E-15   1.80000000000000E+00
      1.80000000000000E+00   0.00000000000000E+00   0.00000000000000E+00   5.45982387059321E-05   4.82439135689989E-51
      5.45982387059321E-05   3.01060924476605E-15
      7.50000000000000E-01
      0.00000000000000E+00   0.00000000000000E+00   0.00000000000000E+00   0.00000000000000E+00  -7.83456577982337E-05
      5.61048408877925E-34  -7.83456577982337E-05   1.29146794133028E-15   1.35000000000000E+00   1.35000000000000E+00
      0.00000000000000E+00   0.00000000000000E+00   0.00000000000000E+00   0.00000000000000E+00   0.00000000000000E+00
      3.17199496221535E-15  -9.00000000000000E-01  -9.00000000000000E-01   0.00000000000000E+00   0.00000000000000E+00
      1.03971791008155E-17  -5.61048408877925E-34   1.03971791008155E-17  -7.41950520371469E-15   1.80000000000000E+00
      1.80000000000000E+00   0.00000000000000E+00   0.00000000000000E+00   7.83456577982232E-05   7.02768934529346E-51
      7.83456577982232E-05   2.95604230016906E-15
      8.00000000000000E-01
      0.00000000000000E+00   0.00000000000000E+00   0.00000000000000E+00   0.00000000000000E+00  -1.05262877890847E-04
      4.15986485006579E-34  -1.05262877890847E-04   1.27377217215102E-15   1.44000000000000E+00   1.44000000000000E+00
      0.00000000000000E+00   0.00000000000000E+00   0.00000000000000E+00   0.00000000000000E+00   0.00000000000000E+00
      3.56405495739827E-15  -9.00000000000000E-01  -9.00000000000000E-01   0.00000000000000E+00   0.00000000000000E+00
      3.89869441908579E-19  -4.15986485006579E-34   3.89869441908579E-19  -7.73852865853884E-15   1.80000000000000E+00
      1.80000000000000E+00   0.00000000000000E+00   0.00000000000000E+00   1.05262877890846E-04   5.78955856795985E-51
      1.05262877890846E-04   2.90070152898957E-15
      8.50000000000000E-01
      0.00000000000000E+00   0.00000000000000E+00   0.00000000000000E+00   0.00000000000000E+00  -1.34948141717493E-04
      6.51226676788570E-34  -1.34948141717493E-04   1.25646993038707E-15   1.53000000000000E+00   1.53000000000000E+00
      0.00000000000000E+00   0.00000000000000E+00   0.00000000000000E+00   0.00000000000000E+00   0.00000000000000E+00
      3.96429387534032E-15  -9.00000000000000E-01  -9.00000000000000E-01   0.00000000000000E+00   0.00000000000000E+00
      3.10188038109014E-18  -6.51226676788570E-34   3.10188038109014E-18  -8.06571354991961E-15   1.80000000000000E+00
      1.80000000000000E+00   0.00000000000000E+00   0.00000000000000E+00   1.34948141717490E-04   9.05419919414126E-51
      1.34948141717490E-04   2.84494974419223E-15
      9.00000000000000E-01
      0.00000000000000E+00   0.00000000000000E+00   0.00000000000000E+00   0.00000000000000E+00  -1.67063113874795E-04
      7.13338162482963E-34  -1.67063113874795E-04   1.23949915899437E-15   1.62000000000000E+00   1.62000000000000E+00
      0.00000000000000E+00   0.00000000000000E+00   0.00000000000000E+00   0.00000000000000E+00   0.00000000000000E+00
      4.37184535942168E-15  -9.00000000000000E-01  -9.00000000000000E-01   0.00000000000000E+00   0.00000000000000E+00
     -1.74457396594673E-17  -7.13338162482963E-34  -1.74457396594673E-17  -8.40033435586354E-15   1.80000000000000E+00
      1.80000000000000E+00   0.00000000000000E+00   0.00000000000000E+00   1.67063113874813E-04   9.53220777544486E-51
      1.67063113874813E-04   2.78898983744750E-15
      9.50000000000000E-01
      0.00000000000000E+00   0.00000000000000E+00   0.00000000000000E+00   0.00000000000000E+00  -2.01322011513240E-04
      6.24873904676301E-34  -2.01322011513240E-04   1.22281163378008E-15   1.71000000000000E+00   1.71000000000000E+00
      0.00000000000000E+00   0.00000000000000E+00   0.00000000000000E+00   0.00000000000000E+00   0.00000000000000E+00
      4.78611346912245E-15  -9.00000000000000E-01  -9.00000000000000E-01   0.00000000000000E+00   0.00000000000000E+00
      6.19043570211308E-18  -6.24873904676301E-34   6.19043570211307E-18  -8.74187238379426E-15   1.80000000000000E+00
      1.80000000000000E+00   0.00000000000000E+00   0.00000000000000E+00   2.01322011513234E-04   1.07468599079398E-50
      2.01322011513234E-04   2.73294728089173E-15
      1.00000000000000E+00
      0.00000000000000E+00   0.00000000000000E+00   0.00000000000000E+00   0.00000000000000E+00  -2.37488670294509E-04
      6.32486191761057E-34  -2.37488670294509E-04   1.20636900311112E-15   1.80000000000000E+00   1.80000000000000E+00
      0.00000000000000E+00   0.00000000000000E+00   0.00000000000000E+00   0.00000000000000E+00   0.00000000000000E+00
      5.20638893496038E-15  -9.00000000000000E-01  -9.00000000000000E-01   0.00000000000000E+00   0.00000000000000E+00
      1.72354558368227E-17  -6.32486191761057E-34   1.72354558368227E-17  -9.08973036981106E-15   1.80000000000000E+00
      1.80000000000000E+00   0.00000000000000E+00   0.00000000000000E+00   2.37488670294491E-04   1.00736751724040E-50
      2.37488670294491E-04   2.67697243173955E-15
}
