DF-ISE text

Info {
  version   = 1.0
  type      = xyplot
  datasets  = [
    "time"
    "source OuterVoltage" "source InnerVoltage" "source QuasiFermiPotential" "source DisplacementCurrent" "source eCurrent"
    "source hCurrent" "source TotalCurrent" "source Charge" "gate OuterVoltage" "gate InnerVoltage"
    "gate QuasiFermiPotential" "gate DisplacementCurrent" "gate eCurrent" "gate hCurrent" "gate TotalCurrent"
    "gate Charge" "substrate OuterVoltage" "substrate InnerVoltage" "substrate QuasiFermiPotential" "substrate DisplacementCurrent"
    "substrate eCurrent" "substrate hCurrent" "substrate TotalCurrent" "substrate Charge" "drain OuterVoltage"
    "drain InnerVoltage" "drain QuasiFermiPotential" "drain DisplacementCurrent" "drain eCurrent" "drain hCurrent"
    "drain TotalCurrent" "drain Charge" ]
  functions = [
    Time
    OuterVoltage InnerVoltage QuasiFermiPotential DisplacementCurrent eCurrent
    hCurrent TotalCurrent Charge OuterVoltage InnerVoltage
    QuasiFermiPotential DisplacementCurrent eCurrent hCurrent TotalCurrent
    Charge OuterVoltage InnerVoltage QuasiFermiPotential DisplacementCurrent
    eCurrent hCurrent TotalCurrent Charge OuterVoltage
    InnerVoltage QuasiFermiPotential DisplacementCurrent eCurrent hCurrent
    TotalCurrent Charge ]
}

Data {
      5.00000000000000E-02
      0.00000000000000E+00   0.00000000000000E+00   0.00000000000000E+00   0.00000000000000E+00  -2.49395761093720E-05
     -1.99061183106353E-42  -2.49395761093720E-05   2.02142157994415E-15   9.00000000000000E-02   9.00000000000000E-02
      0.00000000000000E+00   0.00000000000000E+00   0.00000000000000E+00   0.00000000000000E+00   0.00000000000000E+00
     -1.42002745870371E-15  -1.80000000000000E+00  -1.80000000000000E+00   0.00000000000000E+00   0.00000000000000E+00
     -2.33649047342247E-14   1.99061183106353E-42  -2.33649047342247E-14  -4.42938992309981E-15   1.80000000000000E+00
      1.80000000000000E+00   0.00000000000000E+00   0.00000000000000E+00   2.49395761327369E-05   7.88741274398047E-60
      2.49395761327369E-05   3.82799580185937E-15
      1.00000000000000E-01
      0.00000000000000E+00   0.00000000000000E+00   0.00000000000000E+00   0.00000000000000E+00  -3.69678500238352E-05
     -1.72179041859125E-42  -3.69678500238352E-05   1.96113405685197E-15   1.80000000000000E-01   1.80000000000000E-01
      0.00000000000000E+00   0.00000000000000E+00   0.00000000000000E+00   0.00000000000000E+00   0.00000000000000E+00
     -1.31433737920709E-15  -1.80000000000000E+00  -1.80000000000000E+00   0.00000000000000E+00   0.00000000000000E+00
      1.04181398656247E-14   1.72179041859125E-42   1.04181398656247E-14  -4.43272001211366E-15   1.80000000000000E+00
      1.80000000000000E+00   0.00000000000000E+00   0.00000000000000E+00   3.69678500134170E-05   5.51896337329768E-60
      3.69678500134170E-05   3.78592333446878E-15
      1.50000000000000E-01
      0.00000000000000E+00   0.00000000000000E+00   0.00000000000000E+00   0.00000000000000E+00  -5.21682808682033E-05
     -1.93628727965758E-42  -5.21682808682033E-05   1.90030885342855E-15   2.70000000000000E-01   2.70000000000000E-01
      0.00000000000000E+00   0.00000000000000E+00   0.00000000000000E+00   0.00000000000000E+00   0.00000000000000E+00
     -1.20556117691307E-15  -1.80000000000000E+00  -1.80000000000000E+00   0.00000000000000E+00   0.00000000000000E+00
      1.84497921384063E-14   1.93628727965758E-42   1.84497921384063E-14  -4.43750940524109E-15   1.80000000000000E+00
      1.80000000000000E+00   0.00000000000000E+00   0.00000000000000E+00   5.21682808497535E-05   4.49518345420584E-60
      5.21682808497535E-05   3.74276172872561E-15
      2.00000000000000E-01
      0.00000000000000E+00   0.00000000000000E+00   0.00000000000000E+00   0.00000000000000E+00  -7.11608919968116E-05
     -2.64987295477336E-42  -7.11608919968116E-05   1.84051647878772E-15   3.60000000000000E-01   3.60000000000000E-01
      0.00000000000000E+00   0.00000000000000E+00   0.00000000000000E+00   0.00000000000000E+00   0.00000000000000E+00
     -1.09238883277686E-15  -1.80000000000000E+00  -1.80000000000000E+00   0.00000000000000E+00   0.00000000000000E+00
     -1.34527305868942E-19   2.64987295477336E-42  -1.34527305868942E-19  -4.44629774438540E-15   1.80000000000000E+00
      1.80000000000000E+00   0.00000000000000E+00   0.00000000000000E+00   7.11608919968117E-05   3.76427418311990E-60
      7.11608919968117E-05   3.69817009837454E-15
      2.50000000000000E-01
      0.00000000000000E+00   0.00000000000000E+00   0.00000000000000E+00   0.00000000000000E+00  -9.50009513066144E-05
     -1.34735376654047E-42  -9.50009513066144E-05   1.78531236036093E-15   4.50000000000000E-01   4.50000000000000E-01
      0.00000000000000E+00   0.00000000000000E+00   0.00000000000000E+00   0.00000000000000E+00   0.00000000000000E+00
     -9.71912977033719E-16  -1.80000000000000E+00  -1.80000000000000E+00   0.00000000000000E+00   0.00000000000000E+00
     -1.74341198391578E-18   1.34735376654047E-42  -1.74341198391578E-18  -4.46496521622437E-15   1.80000000000000E+00
      1.80000000000000E+00   0.00000000000000E+00   0.00000000000000E+00   9.50009513066161E-05   1.34948000917406E-59
      9.50009513066161E-05   3.65156583289717E-15
      3.00000000000000E-01
      0.00000000000000E+00   0.00000000000000E+00   0.00000000000000E+00   0.00000000000000E+00  -1.25354231689093E-04
     -1.12933717214287E-42  -1.25354231689093E-04   1.73848746714880E-15   5.40000000000000E-01   5.40000000000000E-01
      0.00000000000000E+00   0.00000000000000E+00   0.00000000000000E+00   0.00000000000000E+00   0.00000000000000E+00
     -8.40777797707541E-16  -1.80000000000000E+00  -1.80000000000000E+00   0.00000000000000E+00   0.00000000000000E+00
     -6.42413310226485E-18   1.12933717214287E-42  -6.42413310226485E-18  -4.49977486758499E-15   1.80000000000000E+00
      1.80000000000000E+00   0.00000000000000E+00   0.00000000000000E+00   1.25354231689099E-04   1.28667922864982E-59
      1.25354231689099E-04   3.60206519814372E-15
      3.50000000000000E-01
      0.00000000000000E+00   0.00000000000000E+00   0.00000000000000E+00   0.00000000000000E+00  -1.62420333128872E-04
     -1.89528629816116E-42  -1.62420333128872E-04   1.70006639105971E-15   6.30000000000000E-01   6.30000000000000E-01
      0.00000000000000E+00   0.00000000000000E+00   0.00000000000000E+00   0.00000000000000E+00   0.00000000000000E+00
     -6.98743579265242E-16  -1.80000000000000E+00  -1.80000000000000E+00   0.00000000000000E+00   0.00000000000000E+00
     -1.25896044748585E-18   1.89528629816116E-42  -1.25896044748585E-18  -4.55066441743161E-15   1.80000000000000E+00
      1.80000000000000E+00   0.00000000000000E+00   0.00000000000000E+00   1.62420333128873E-04   9.85294496032407E-60
      1.62420333128873E-04   3.54934160563714E-15
      4.00000000000000E-01
      0.00000000000000E+00   0.00000000000000E+00   0.00000000000000E+00   0.00000000000000E+00  -2.05856969029828E-04
     -2.40583177412404E-42  -2.05856969029828E-04   1.66766788793052E-15   7.20000000000000E-01   7.20000000000000E-01
      0.00000000000000E+00   0.00000000000000E+00   0.00000000000000E+00   0.00000000000000E+00   0.00000000000000E+00
     -5.47711454768402E-16  -1.80000000000000E+00  -1.80000000000000E+00   0.00000000000000E+00   0.00000000000000E+00
     -4.23411723602112E-18   2.40583177412404E-42  -4.23411723602112E-18  -4.61370210861834E-15   1.80000000000000E+00
      1.80000000000000E+00   0.00000000000000E+00   0.00000000000000E+00   2.05856969029832E-04   9.15137371734251E-60
      2.05856969029832E-04   3.49374567545622E-15
      4.50000000000000E-01
      0.00000000000000E+00   0.00000000000000E+00   0.00000000000000E+00   0.00000000000000E+00  -2.54450652140438E-04
     -2.68043901778381E-42  -2.54450652140438E-04   1.63902758709535E-15   8.10000000000000E-01   8.10000000000000E-01
      0.00000000000000E+00   0.00000000000000E+00   0.00000000000000E+00   0.00000000000000E+00   0.00000000000000E+00
     -3.89783241291520E-16  -1.80000000000000E+00  -1.80000000000000E+00   0.00000000000000E+00   0.00000000000000E+00
     -1.94263105949791E-13   2.68043901778380E-42  -1.94263105949791E-13  -4.68553920445196E-15   1.80000000000000E+00
      1.80000000000000E+00   0.00000000000000E+00   0.00000000000000E+00   2.54450652334701E-04   7.30378959486717E-60
      2.54450652334701E-04   3.43629485864813E-15
      5.00000000000000E-01
      0.00000000000000E+00   0.00000000000000E+00   0.00000000000000E+00   0.00000000000000E+00  -3.07024668404001E-04
     -1.89012725041470E-42  -3.07024668404001E-04   1.61277433224087E-15   9.00000000000000E-01   9.00000000000000E-01
      0.00000000000000E+00   0.00000000000000E+00   0.00000000000000E+00   0.00000000000000E+00   0.00000000000000E+00
     -2.26493179283118E-16  -1.80000000000000E+00  -1.80000000000000E+00   0.00000000000000E+00   0.00000000000000E+00
     -5.09601644771499E-14   1.89012725041470E-42  -5.09601644771499E-14  -4.76427297226701E-15   1.80000000000000E+00
      1.80000000000000E+00   0.00000000000000E+00   0.00000000000000E+00   3.07024668454961E-04   8.47520483318692E-60
      3.07024668454961E-04   3.37799181930926E-15
      5.50000000000000E-01
      0.00000000000000E+00   0.00000000000000E+00   0.00000000000000E+00   0.00000000000000E+00  -3.62770249906113E-04
     -2.39417811141216E-42  -3.62770249906113E-04   1.58811851539535E-15   9.90000000000000E-01   9.90000000000000E-01
      0.00000000000000E+00   0.00000000000000E+00   0.00000000000000E+00   0.00000000000000E+00   0.00000000000000E+00
     -5.89281698416520E-17  -1.80000000000000E+00  -1.80000000000000E+00   0.00000000000000E+00   0.00000000000000E+00
     -1.13730085387876E-14   2.39417811141216E-42  -1.13730085387876E-14  -4.84874218602593E-15   1.80000000000000E+00
      1.80000000000000E+00   0.00000000000000E+00   0.00000000000000E+00   3.62770249917486E-04   5.14014387160041E-60
      3.62770249917486E-04   3.31955184047223E-15
      6.00000000000000E-01
      0.00000000000000E+00   0.00000000000000E+00   0.00000000000000E+00   0.00000000000000E+00  -4.21119951091040E-04
     -2.29292185914979E-42  -4.21119951091040E-04   1.56458389402481E-15   1.08000000000000E+00   1.08000000000000E+00
      0.00000000000000E+00   0.00000000000000E+00   0.00000000000000E+00   0.00000000000000E+00   0.00000000000000E+00
      1.12069334032197E-16  -1.80000000000000E+00  -1.80000000000000E+00   0.00000000000000E+00   0.00000000000000E+00
     -3.55746392871668E-15   2.29292185914979E-42  -3.55746392871668E-15  -4.93812085916440E-15   1.80000000000000E+00
      1.80000000000000E+00   0.00000000000000E+00   0.00000000000000E+00   4.21119951094597E-04   1.93617289325116E-59
      4.21119951094597E-04   3.26146763110739E-15
      6.50000000000000E-01
      0.00000000000000E+00   0.00000000000000E+00   0.00000000000000E+00   0.00000000000000E+00  -4.81691494339911E-04
     -1.50576548767866E-42  -4.81691494339911E-04   1.54186959174298E-15   1.17000000000000E+00   1.17000000000000E+00
      0.00000000000000E+00   0.00000000000000E+00   0.00000000000000E+00   0.00000000000000E+00   0.00000000000000E+00
      2.85860437200790E-16  -1.80000000000000E+00  -1.80000000000000E+00   0.00000000000000E+00   0.00000000000000E+00
     -1.86532868066709E-15   1.50576548767866E-42  -1.86532868066709E-15  -5.03170304089123E-15   1.80000000000000E+00
      1.80000000000000E+00   0.00000000000000E+00   0.00000000000000E+00   4.81691494341776E-04   3.68936940302589E-60
      4.81691494341776E-04   3.20397301194746E-15
      7.00000000000000E-01
      0.00000000000000E+00   0.00000000000000E+00   0.00000000000000E+00   0.00000000000000E+00  -5.44017231473517E-04
     -1.21102623773137E-42  -5.44017231473517E-04   1.51979605204554E-15   1.26000000000000E+00   1.26000000000000E+00
      0.00000000000000E+00   0.00000000000000E+00   0.00000000000000E+00   0.00000000000000E+00   0.00000000000000E+00
      4.62149969503278E-16  -1.80000000000000E+00  -1.80000000000000E+00   0.00000000000000E+00   0.00000000000000E+00
     -3.99671979560491E-16   1.21102623773137E-42  -3.99671979560491E-16  -5.12906495624528E-15   1.80000000000000E+00
      1.80000000000000E+00   0.00000000000000E+00   0.00000000000000E+00   5.44017231473917E-04   2.60098543260877E-60
      5.44017231473917E-04   3.14711893469646E-15
      7.50000000000000E-01
      0.00000000000000E+00   0.00000000000000E+00   0.00000000000000E+00   0.00000000000000E+00  -6.07960403605332E-04
     -1.38260267329278E-42  -6.07960403605332E-04   1.49821779378464E-15   1.35000000000000E+00   1.35000000000000E+00
      0.00000000000000E+00   0.00000000000000E+00   0.00000000000000E+00   0.00000000000000E+00   0.00000000000000E+00
      6.40572771871332E-16  -1.80000000000000E+00  -1.80000000000000E+00   0.00000000000000E+00   0.00000000000000E+00
     -4.72873542963044E-17   1.38260267329278E-42  -4.72873542963044E-17  -5.22971877800955E-15   1.80000000000000E+00
      1.80000000000000E+00   0.00000000000000E+00   0.00000000000000E+00   6.07960403605380E-04   1.26500583300803E-60
      6.07960403605380E-04   3.09092821235358E-15
      8.00000000000000E-01
      0.00000000000000E+00   0.00000000000000E+00   0.00000000000000E+00   0.00000000000000E+00  -6.73235604459487E-04
     -2.02372456479394E-42  -6.73235604459487E-04   1.47704938950122E-15   1.44000000000000E+00   1.44000000000000E+00
      0.00000000000000E+00   0.00000000000000E+00   0.00000000000000E+00   0.00000000000000E+00   0.00000000000000E+00
      8.21068554196794E-16  -1.80000000000000E+00  -1.80000000000000E+00   0.00000000000000E+00   0.00000000000000E+00
     -2.37083719536930E-17   2.02372456479394E-42  -2.37083719536930E-17  -5.33357289920215E-15   1.80000000000000E+00
      1.80000000000000E+00   0.00000000000000E+00   0.00000000000000E+00   6.73235604459510E-04   4.53149799663555E-60
      6.73235604459510E-04   3.03545495550414E-15
      8.50000000000000E-01
      0.00000000000000E+00   0.00000000000000E+00   0.00000000000000E+00   0.00000000000000E+00  -7.39675600890383E-04
     -9.87501672567157E-43  -7.39675600890383E-04   1.45621720652898E-15   1.53000000000000E+00   1.53000000000000E+00
      0.00000000000000E+00   0.00000000000000E+00   0.00000000000000E+00   0.00000000000000E+00   0.00000000000000E+00
      1.00346671206720E-15  -1.80000000000000E+00  -1.80000000000000E+00   0.00000000000000E+00   0.00000000000000E+00
     -4.69973512622548E-17   9.87501672567157E-43  -4.69973512622548E-17  -5.44052789699006E-15   1.80000000000000E+00
      1.80000000000000E+00   0.00000000000000E+00   0.00000000000000E+00   7.39675600890430E-04   1.17297612063214E-59
      7.39675600890430E-04   2.98084397839388E-15
      9.00000000000000E-01
      0.00000000000000E+00   0.00000000000000E+00   0.00000000000000E+00   0.00000000000000E+00  -8.07221651837704E-04
     -8.71332432228855E-43  -8.07221651837704E-04   1.43565460338312E-15   1.62000000000000E+00   1.62000000000000E+00
      0.00000000000000E+00   0.00000000000000E+00   0.00000000000000E+00   0.00000000000000E+00   0.00000000000000E+00
      1.18749415726024E-15  -1.80000000000000E+00  -1.80000000000000E+00   0.00000000000000E+00   0.00000000000000E+00
     -5.68762186068273E-17   8.71332432228855E-43  -5.68762186068273E-17  -5.55037725706198E-15   1.80000000000000E+00
      1.80000000000000E+00   0.00000000000000E+00   0.00000000000000E+00   8.07221651837761E-04   3.68972791631965E-60
      8.07221651837761E-04   2.92722849641861E-15
      9.50000000000000E-01
      0.00000000000000E+00   0.00000000000000E+00   0.00000000000000E+00   0.00000000000000E+00  -8.75791723548095E-04
     -1.24481466942661E-42  -8.75791723548095E-04   1.41531354591819E-15   1.71000000000000E+00   1.71000000000000E+00
      0.00000000000000E+00   0.00000000000000E+00   0.00000000000000E+00   0.00000000000000E+00   0.00000000000000E+00
      1.37304456044603E-15  -1.80000000000000E+00  -1.80000000000000E+00   0.00000000000000E+00   0.00000000000000E+00
      1.73031066805034E-18   1.24481466942661E-42   1.73031066805034E-18  -5.66302855110573E-15   1.80000000000000E+00
      1.80000000000000E+00   0.00000000000000E+00   0.00000000000000E+00   8.75791723548093E-04   2.09643204893185E-60
      8.75791723548093E-04   2.87467044474151E-15
      1.00000000000000E+00
      0.00000000000000E+00   0.00000000000000E+00   0.00000000000000E+00   0.00000000000000E+00  -9.45315518360665E-04
     -1.88900986301180E-42  -9.45315518360665E-04   1.39515810613523E-15   1.80000000000000E+00   1.80000000000000E+00
      0.00000000000000E+00   0.00000000000000E+00   0.00000000000000E+00   0.00000000000000E+00   0.00000000000000E+00
      1.56021222050753E-15  -1.80000000000000E+00  -1.80000000000000E+00   0.00000000000000E+00   0.00000000000000E+00
      3.52648904577810E-15   1.88900986301180E-42   3.52648904577810E-15  -5.77874460996102E-15   1.80000000000000E+00
      1.80000000000000E+00   0.00000000000000E+00   0.00000000000000E+00   9.45315518357138E-04   1.41205437819467E-59
      9.45315518357138E-04   2.82337428331826E-15
}
