DF-ISE text

Info {
  version   = 1.0
  type      = xyplot
  datasets  = [
    "time"
    "source OuterVoltage" "source InnerVoltage" "source QuasiFermiPotential" "source DisplacementCurrent" "source eCurrent"
    "source hCurrent" "source TotalCurrent" "source Charge" "gate OuterVoltage" "gate InnerVoltage"
    "gate QuasiFermiPotential" "gate DisplacementCurrent" "gate eCurrent" "gate hCurrent" "gate TotalCurrent"
    "gate Charge" "substrate OuterVoltage" "substrate InnerVoltage" "substrate QuasiFermiPotential" "substrate DisplacementCurrent"
    "substrate eCurrent" "substrate hCurrent" "substrate TotalCurrent" "substrate Charge" "drain OuterVoltage"
    "drain InnerVoltage" "drain QuasiFermiPotential" "drain DisplacementCurrent" "drain eCurrent" "drain hCurrent"
    "drain TotalCurrent" "drain Charge" ]
  functions = [
    Time
    OuterVoltage InnerVoltage QuasiFermiPotential DisplacementCurrent eCurrent
    hCurrent TotalCurrent Charge OuterVoltage InnerVoltage
    QuasiFermiPotential DisplacementCurrent eCurrent hCurrent TotalCurrent
    Charge OuterVoltage InnerVoltage QuasiFermiPotential DisplacementCurrent
    eCurrent hCurrent TotalCurrent Charge OuterVoltage
    InnerVoltage QuasiFermiPotential DisplacementCurrent eCurrent hCurrent
    TotalCurrent Charge ]
}

Data {
      5.00000000000000E-02
      0.00000000000000E+00   0.00000000000000E+00   0.00000000000000E+00   0.00000000000000E+00  -6.65107736851321E-05
     -2.83533578107370E-25  -6.65107736851321E-05   1.09894660280511E-15   9.00000000000000E-02   9.00000000000000E-02
      0.00000000000000E+00   0.00000000000000E+00   0.00000000000000E+00   0.00000000000000E+00   0.00000000000000E+00
     -1.42853246608112E-15   0.00000000000000E+00   0.00000000000000E+00   0.00000000000000E+00   0.00000000000000E+00
     -1.35210572996260E-14   2.83533578184394E-25  -1.35210572993425E-14  -2.80380569674224E-15   1.80000000000000E+00
      1.80000000000000E+00   0.00000000000000E+00   0.00000000000000E+00   6.65107736986532E-05  -7.70232592148684E-35
      6.65107736986532E-05   3.13339156001826E-15
      1.00000000000000E-01
      0.00000000000000E+00   0.00000000000000E+00   0.00000000000000E+00   0.00000000000000E+00  -8.14250612319840E-05
     -2.53822421261167E-25  -8.14250612319840E-05   1.03940943448310E-15   1.80000000000000E-01   1.80000000000000E-01
      0.00000000000000E+00   0.00000000000000E+00   0.00000000000000E+00   0.00000000000000E+00   0.00000000000000E+00
     -1.32238486153124E-15   0.00000000000000E+00   0.00000000000000E+00   0.00000000000000E+00   0.00000000000000E+00
      6.31127444388189E-15   2.53822421258011E-25   6.31127444413571E-15  -2.80793367458310E-15   1.80000000000000E+00
      1.80000000000000E+00   0.00000000000000E+00   0.00000000000000E+00   8.14250612256727E-05   3.15519539608649E-36
      8.14250612256727E-05   3.09090910163125E-15
      1.50000000000000E-01
      0.00000000000000E+00   0.00000000000000E+00   0.00000000000000E+00   0.00000000000000E+00  -9.87998863319541E-05
     -2.70101534178498E-25  -9.87998863319541E-05   9.79152553322737E-16   2.70000000000000E-01   2.70000000000000E-01
      0.00000000000000E+00   0.00000000000000E+00   0.00000000000000E+00   0.00000000000000E+00   0.00000000000000E+00
     -1.21336280818539E-15   0.00000000000000E+00   0.00000000000000E+00   0.00000000000000E+00   0.00000000000000E+00
      8.17792541830754E-15   2.70101534177569E-25   8.17792541857764E-15  -2.81326113396347E-15   1.80000000000000E+00
      1.80000000000000E+00   0.00000000000000E+00   0.00000000000000E+00   9.87998863237761E-05   9.28473454699253E-37
      9.87998863237761E-05   3.04747138882612E-15
      2.00000000000000E-01
      0.00000000000000E+00   0.00000000000000E+00   0.00000000000000E+00   0.00000000000000E+00  -1.19328830182311E-04
     -2.55051052080596E-25  -1.19328830182311E-04   9.19653754127097E-16   3.60000000000000E-01   3.60000000000000E-01
      0.00000000000000E+00   0.00000000000000E+00   0.00000000000000E+00   0.00000000000000E+00   0.00000000000000E+00
     -1.10021526179427E-15   0.00000000000000E+00   0.00000000000000E+00   0.00000000000000E+00   0.00000000000000E+00
      7.80360892686997E-14   2.55051052080704E-25   7.80360892689548E-14  -2.82217570987957E-15   1.80000000000000E+00
      1.80000000000000E+00   0.00000000000000E+00   0.00000000000000E+00   1.19328830104275E-04  -1.07745030355077E-37
      1.19328830104275E-04   3.00273721754674E-15
      2.50000000000000E-01
      0.00000000000000E+00   0.00000000000000E+00   0.00000000000000E+00   0.00000000000000E+00  -1.44087222060069E-04
     -2.72622149176107E-25  -1.44087222060069E-04   8.64308000440249E-16   4.50000000000000E-01   4.50000000000000E-01
      0.00000000000000E+00   0.00000000000000E+00   0.00000000000000E+00   0.00000000000000E+00   0.00000000000000E+00
     -9.80135519800058E-16   0.00000000000000E+00   0.00000000000000E+00   0.00000000000000E+00   0.00000000000000E+00
      8.15996366026252E-19   2.72622149176084E-25   8.15996638648401E-19  -2.84030821725164E-15   1.80000000000000E+00
      1.80000000000000E+00   0.00000000000000E+00   0.00000000000000E+00   1.44087222060068E-04   2.35502999307809E-38
      1.44087222060068E-04   2.95613573661145E-15
      3.00000000000000E-01
      0.00000000000000E+00   0.00000000000000E+00   0.00000000000000E+00   0.00000000000000E+00  -1.74895155048907E-04
     -2.88646050392417E-25  -1.74895155048907E-04   8.17037780987073E-16   5.40000000000000E-01   5.40000000000000E-01
      0.00000000000000E+00   0.00000000000000E+00   0.00000000000000E+00   0.00000000000000E+00   0.00000000000000E+00
     -8.49632565311478E-16   0.00000000000000E+00   0.00000000000000E+00   0.00000000000000E+00   0.00000000000000E+00
     -8.05350959124450E-18   2.88646050392411E-25  -8.05350930259845E-18  -2.87413240048895E-15   1.80000000000000E+00
      1.80000000000000E+00   0.00000000000000E+00   0.00000000000000E+00   1.74895155048914E-04   5.91342532351486E-39
      1.74895155048914E-04   2.90672718481336E-15
      3.50000000000000E-01
      0.00000000000000E+00   0.00000000000000E+00   0.00000000000000E+00   0.00000000000000E+00  -2.12066493781767E-04
     -3.00916870894984E-25  -2.12066493781767E-04   7.78226407713024E-16   6.30000000000000E-01   6.30000000000000E-01
      0.00000000000000E+00   0.00000000000000E+00   0.00000000000000E+00   0.00000000000000E+00   0.00000000000000E+00
     -7.08134230286509E-16   0.00000000000000E+00   0.00000000000000E+00   0.00000000000000E+00   0.00000000000000E+00
     -2.37452953755809E-19   3.00916870894985E-25  -2.37452652838938E-19  -2.92415919518428E-15   1.80000000000000E+00
      1.80000000000000E+00   0.00000000000000E+00   0.00000000000000E+00   2.12066493781767E-04  -9.34603703746215E-40
      2.12066493781767E-04   2.85406701775777E-15
      4.00000000000000E-01
      0.00000000000000E+00   0.00000000000000E+00   0.00000000000000E+00   0.00000000000000E+00  -2.55582218036232E-04
     -2.59627721284464E-25  -2.55582218036232E-04   7.45628431246346E-16   7.20000000000000E-01   7.20000000000000E-01
      0.00000000000000E+00   0.00000000000000E+00   0.00000000000000E+00   0.00000000000000E+00   0.00000000000000E+00
     -5.57377817272312E-16   0.00000000000000E+00   0.00000000000000E+00   0.00000000000000E+00   0.00000000000000E+00
      1.91368971150866E-19   2.59627721284463E-25   1.91369230778588E-19  -2.98656750870568E-15   1.80000000000000E+00
      1.80000000000000E+00   0.00000000000000E+00   0.00000000000000E+00   2.55582218036231E-04   1.36497179671828E-39
      2.55582218036231E-04   2.79831689473165E-15
      4.50000000000000E-01
      0.00000000000000E+00   0.00000000000000E+00   0.00000000000000E+00   0.00000000000000E+00  -3.04274821986122E-04
     -2.58303123820374E-25  -3.04274821986122E-04   7.16921592286084E-16   8.10000000000000E-01   8.10000000000000E-01
      0.00000000000000E+00   0.00000000000000E+00   0.00000000000000E+00   0.00000000000000E+00   0.00000000000000E+00
     -3.99502673263273E-16   0.00000000000000E+00   0.00000000000000E+00   0.00000000000000E+00   0.00000000000000E+00
     -2.27358701313343E-13   2.58303123820374E-25  -2.27358701313084E-13  -3.05793450503654E-15   1.80000000000000E+00
      1.80000000000000E+00   0.00000000000000E+00   0.00000000000000E+00   3.04274822213481E-04   5.60777347292498E-40
      3.04274822213481E-04   2.74051558601373E-15
      5.00000000000000E-01
      0.00000000000000E+00   0.00000000000000E+00   0.00000000000000E+00   0.00000000000000E+00  -3.56956810938578E-04
     -2.59736359438916E-25  -3.56956810938578E-04   6.90680051639017E-16   9.00000000000000E-01   9.00000000000000E-01
      0.00000000000000E+00   0.00000000000000E+00   0.00000000000000E+00   0.00000000000000E+00   0.00000000000000E+00
     -2.36107594956390E-16   0.00000000000000E+00   0.00000000000000E+00   0.00000000000000E+00   0.00000000000000E+00
     -6.96946070504515E-14   2.59736359438915E-25  -6.96946070501917E-14  -3.13635489763718E-15   1.80000000000000E+00
      1.80000000000000E+00   0.00000000000000E+00   0.00000000000000E+00   3.56956811008272E-04   1.51045964212311E-40
      3.56956811008272E-04   2.68178244095456E-15
      5.50000000000000E-01
      0.00000000000000E+00   0.00000000000000E+00   0.00000000000000E+00   0.00000000000000E+00  -4.12865856108574E-04
     -2.36352074799203E-25  -4.12865856108574E-04   6.66077679988221E-16   9.90000000000000E-01   9.90000000000000E-01
      0.00000000000000E+00   0.00000000000000E+00   0.00000000000000E+00   0.00000000000000E+00   0.00000000000000E+00
     -6.83858489688238E-17   0.00000000000000E+00   0.00000000000000E+00   0.00000000000000E+00   0.00000000000000E+00
     -1.76709557331087E-14   2.36352074799203E-25  -1.76709557328723E-14  -3.22058243278497E-15   1.80000000000000E+00
      1.80000000000000E+00   0.00000000000000E+00   0.00000000000000E+00   4.12865856126245E-04   3.94233777050433E-40
      4.12865856126245E-04   2.62289060176557E-15
      6.00000000000000E-01
      0.00000000000000E+00   0.00000000000000E+00   0.00000000000000E+00   0.00000000000000E+00  -4.71356752908088E-04
     -2.59139607732580E-25  -4.71356752908088E-04   6.42629552888477E-16   1.08000000000000E+00   1.08000000000000E+00
      0.00000000000000E+00   0.00000000000000E+00   0.00000000000000E+00   0.00000000000000E+00   0.00000000000000E+00
      1.02838738151952E-16   0.00000000000000E+00   0.00000000000000E+00   0.00000000000000E+00   0.00000000000000E+00
     -4.70778570556245E-15   2.59139607732580E-25  -4.70778570530331E-15  -3.30986728359626E-15   1.80000000000000E+00
      1.80000000000000E+00   0.00000000000000E+00   0.00000000000000E+00   4.71356752912796E-04   1.60669027642951E-40
      4.71356752912796E-04   2.56439899255583E-15
      6.50000000000000E-01
      0.00000000000000E+00   0.00000000000000E+00   0.00000000000000E+00   0.00000000000000E+00  -5.32108023984934E-04
     -2.78166670317435E-25  -5.32108023984934E-04   6.20021199732811E-16   1.17000000000000E+00   1.17000000000000E+00
      0.00000000000000E+00   0.00000000000000E+00   0.00000000000000E+00   0.00000000000000E+00   0.00000000000000E+00
      2.76864827157884E-16   0.00000000000000E+00   0.00000000000000E+00   0.00000000000000E+00   0.00000000000000E+00
     -4.53060222163862E-15   2.78166670317435E-25  -4.53060222136046E-15  -3.40343381796374E-15   1.80000000000000E+00
      1.80000000000000E+00   0.00000000000000E+00   0.00000000000000E+00   5.32108023989463E-04   2.11315916729898E-41
      5.32108023989463E-04   2.50654779107304E-15
      7.00000000000000E-01
      0.00000000000000E+00   0.00000000000000E+00   0.00000000000000E+00   0.00000000000000E+00  -5.94580498529181E-04
     -2.56268386972807E-25  -5.94580498529181E-04   5.98072021880186E-16   1.26000000000000E+00   1.26000000000000E+00
      0.00000000000000E+00   0.00000000000000E+00   0.00000000000000E+00   0.00000000000000E+00   0.00000000000000E+00
      4.53445401672690E-16   0.00000000000000E+00   0.00000000000000E+00   0.00000000000000E+00   0.00000000000000E+00
     -6.25088218472671E-16   2.56268386972807E-25  -6.25088218216402E-16  -3.50089334894841E-15   1.80000000000000E+00
      1.80000000000000E+00   0.00000000000000E+00   0.00000000000000E+00   5.94580498529806E-04   3.65136943222384E-41
      5.94580498529806E-04   2.44937592539552E-15
      7.50000000000000E-01
      0.00000000000000E+00   0.00000000000000E+00   0.00000000000000E+00   0.00000000000000E+00  -6.58655128990702E-04
     -2.59934527750846E-25  -6.58655128990702E-04   5.76632241314913E-16   1.35000000000000E+00   1.35000000000000E+00
      0.00000000000000E+00   0.00000000000000E+00   0.00000000000000E+00   0.00000000000000E+00   0.00000000000000E+00
      6.32186258508994E-16   0.00000000000000E+00   0.00000000000000E+00   0.00000000000000E+00   0.00000000000000E+00
     -7.58080850458160E-17   2.59934527750846E-25  -7.58080847858815E-17  -3.60171944283284E-15   1.80000000000000E+00
      1.80000000000000E+00   0.00000000000000E+00   0.00000000000000E+00   6.58655128990778E-04  -1.77023741878631E-41
      6.58655128990778E-04   2.39290094300893E-15
      8.00000000000000E-01
      0.00000000000000E+00   0.00000000000000E+00   0.00000000000000E+00   0.00000000000000E+00  -7.24068024817701E-04
     -2.57668754421011E-25  -7.24068024817701E-04   5.55610988689512E-16   1.44000000000000E+00   1.44000000000000E+00
      0.00000000000000E+00   0.00000000000000E+00   0.00000000000000E+00   0.00000000000000E+00   0.00000000000000E+00
      8.12995773238680E-16   0.00000000000000E+00   0.00000000000000E+00   0.00000000000000E+00   0.00000000000000E+00
     -2.07399747574916E-17   2.57668754421011E-25  -2.07399744998228E-17  -3.70576983447138E-15   1.80000000000000E+00
      1.80000000000000E+00   0.00000000000000E+00   0.00000000000000E+00   7.24068024817721E-04   7.59589144361972E-42
      7.24068024817721E-04   2.33716307254319E-15
      8.50000000000000E-01
      0.00000000000000E+00   0.00000000000000E+00   0.00000000000000E+00   0.00000000000000E+00  -7.90609995719614E-04
     -2.74949379492763E-25  -7.90609995719614E-04   5.34938094216140E-16   1.53000000000000E+00   1.53000000000000E+00
      0.00000000000000E+00   0.00000000000000E+00   0.00000000000000E+00   0.00000000000000E+00   0.00000000000000E+00
      9.95750778756235E-16   0.00000000000000E+00   0.00000000000000E+00   0.00000000000000E+00   0.00000000000000E+00
     -4.88546781142770E-17   2.74949379492763E-25  -4.88546778393277E-17  -3.81299201270971E-15   1.80000000000000E+00
      1.80000000000000E+00   0.00000000000000E+00   0.00000000000000E+00   7.90609995719663E-04   8.49246504274294E-42
      7.90609995719663E-04   2.28230313973734E-15
      9.00000000000000E-01
      0.00000000000000E+00   0.00000000000000E+00   0.00000000000000E+00   0.00000000000000E+00  -8.58247041992011E-04
     -2.89745246393292E-25  -8.58247041992011E-04   5.14546183097652E-16   1.62000000000000E+00   1.62000000000000E+00
      0.00000000000000E+00   0.00000000000000E+00   0.00000000000000E+00   0.00000000000000E+00   0.00000000000000E+00
      1.18015749094387E-15   0.00000000000000E+00   0.00000000000000E+00   0.00000000000000E+00   0.00000000000000E+00
     -7.22494160431332E-17   2.89745246393292E-25  -7.22494157533880E-17  -3.92316432739239E-15   1.80000000000000E+00
      1.80000000000000E+00   0.00000000000000E+00   0.00000000000000E+00   8.58247041992083E-04   1.64213891980953E-42
      8.58247041992083E-04   2.22846065335088E-15
      9.50000000000000E-01
      0.00000000000000E+00   0.00000000000000E+00   0.00000000000000E+00   0.00000000000000E+00  -9.26897557854005E-04
     -2.51327157319247E-25  -9.26897557854005E-04   4.94387825665953E-16   1.71000000000000E+00   1.71000000000000E+00
      0.00000000000000E+00   0.00000000000000E+00   0.00000000000000E+00   0.00000000000000E+00   0.00000000000000E+00
      1.36610663194017E-15   0.00000000000000E+00   0.00000000000000E+00   0.00000000000000E+00   0.00000000000000E+00
      3.18805416298706E-18   2.51327157319247E-25   3.18805441431421E-18  -4.03619264497738E-15   1.80000000000000E+00
      1.80000000000000E+00   0.00000000000000E+00   0.00000000000000E+00   9.26897557854002E-04  -3.04530425832014E-42
      9.26897557854002E-04   2.17569818737125E-15
      1.00000000000000E+00
      0.00000000000000E+00   0.00000000000000E+00   0.00000000000000E+00   0.00000000000000E+00  -9.96496432841725E-04
     -2.53764016625117E-25  -9.96496432841725E-04   4.74426644828724E-16   1.80000000000000E+00   1.80000000000000E+00
      0.00000000000000E+00   0.00000000000000E+00   0.00000000000000E+00   0.00000000000000E+00   0.00000000000000E+00
      1.55368140504216E-15   0.00000000000000E+00   0.00000000000000E+00   0.00000000000000E+00   0.00000000000000E+00
      4.04747317201759E-15   2.53764016625117E-25   4.04747317227136E-15  -4.15232941422282E-15   1.80000000000000E+00
      1.80000000000000E+00   0.00000000000000E+00   0.00000000000000E+00   9.96496432837677E-04  -5.94548135491686E-43
      9.96496432837677E-04   2.12422136435192E-15
}
