DF-ISE text

Info {
  version   = 1.0
  type      = xyplot
  datasets  = [
    "time"
    "source OuterVoltage" "source InnerVoltage" "source QuasiFermiPotential" "source DisplacementCurrent" "source eCurrent"
    "source hCurrent" "source TotalCurrent" "source Charge" "gate OuterVoltage" "gate InnerVoltage"
    "gate QuasiFermiPotential" "gate DisplacementCurrent" "gate eCurrent" "gate hCurrent" "gate TotalCurrent"
    "gate Charge" "substrate OuterVoltage" "substrate InnerVoltage" "substrate QuasiFermiPotential" "substrate DisplacementCurrent"
    "substrate eCurrent" "substrate hCurrent" "substrate TotalCurrent" "substrate Charge" "drain OuterVoltage"
    "drain InnerVoltage" "drain QuasiFermiPotential" "drain DisplacementCurrent" "drain eCurrent" "drain hCurrent"
    "drain TotalCurrent" "drain Charge" ]
  functions = [
    Time
    OuterVoltage InnerVoltage QuasiFermiPotential DisplacementCurrent eCurrent
    hCurrent TotalCurrent Charge OuterVoltage InnerVoltage
    QuasiFermiPotential DisplacementCurrent eCurrent hCurrent TotalCurrent
    Charge OuterVoltage InnerVoltage QuasiFermiPotential DisplacementCurrent
    eCurrent hCurrent TotalCurrent Charge OuterVoltage
    InnerVoltage QuasiFermiPotential DisplacementCurrent eCurrent hCurrent
    TotalCurrent Charge ]
}

Data {
      5.00000000000000E-02
      0.00000000000000E+00   0.00000000000000E+00   0.00000000000000E+00   0.00000000000000E+00  -1.95242535329585E-14
     -8.74461632550403E-26  -1.95242535330460E-14   1.22072659819739E-15   9.00000000000000E-02   9.00000000000000E-02
      0.00000000000000E+00   0.00000000000000E+00   0.00000000000000E+00   0.00000000000000E+00   0.00000000000000E+00
      2.10353326420319E-16   0.00000000000000E+00   0.00000000000000E+00   0.00000000000000E+00   0.00000000000000E+00
      1.91568981721855E-14   1.46518281858953E-25   1.91568981723320E-14  -2.71959817010384E-15   5.00000000000000E-02
      5.00000000000000E-02   0.00000000000000E+00   0.00000000000000E+00   3.67355360773045E-16  -5.90721186039128E-26
      3.67355360713973E-16   1.28851824548613E-15
      1.00000000000000E-01
      0.00000000000000E+00   0.00000000000000E+00   0.00000000000000E+00   0.00000000000000E+00  -1.83755223530310E-14
     -9.26007410766375E-26  -1.83755223531236E-14   1.16308080347666E-15   1.80000000000000E-01   1.80000000000000E-01
      0.00000000000000E+00   0.00000000000000E+00   0.00000000000000E+00   0.00000000000000E+00   0.00000000000000E+00
      3.99615763281986E-16   0.00000000000000E+00   0.00000000000000E+00   0.00000000000000E+00   0.00000000000000E+00
     -4.54115234508415E-15   1.33388680940381E-25  -4.54115234495076E-15  -2.79425680625036E-15   5.00000000000000E-02
      5.00000000000000E-02   0.00000000000000E+00   0.00000000000000E+00   2.29166746981151E-14  -4.07879398637431E-26
      2.29166746980744E-14   1.23156023949172E-15
      1.50000000000000E-01
      0.00000000000000E+00   0.00000000000000E+00   0.00000000000000E+00   0.00000000000000E+00  -3.56418699854381E-13
     -1.25231237933859E-25  -3.56418699854506E-13   1.10447259124302E-15   2.70000000000000E-01   2.70000000000000E-01
      0.00000000000000E+00   0.00000000000000E+00   0.00000000000000E+00   0.00000000000000E+00   0.00000000000000E+00
      5.87357028063482E-16   0.00000000000000E+00   0.00000000000000E+00   0.00000000000000E+00   0.00000000000000E+00
     -5.65891678662920E-15   1.81398024016937E-25  -5.65891678644780E-15  -2.86523896062561E-15   5.00000000000000E-02
      5.00000000000000E-02   0.00000000000000E+00   0.00000000000000E+00   3.62077616641010E-13  -5.61667860830779E-26
      3.62077616640954E-13   1.17340934131911E-15
      2.00000000000000E-01
      0.00000000000000E+00   0.00000000000000E+00   0.00000000000000E+00   0.00000000000000E+00  -5.89373060997773E-12
     -1.02236954449055E-25  -5.89373060997783E-12   1.04641541917187E-15   3.60000000000000E-01   3.60000000000000E-01
      0.00000000000000E+00   0.00000000000000E+00   0.00000000000000E+00   0.00000000000000E+00   0.00000000000000E+00
      7.75914648857525E-16   0.00000000000000E+00   0.00000000000000E+00   0.00000000000000E+00   0.00000000000000E+00
      5.55047505334840E-20   1.50709109824667E-25   5.55049012425938E-20  -2.93708208095364E-15   5.00000000000000E-02
      5.00000000000000E-02   0.00000000000000E+00   0.00000000000000E+00   5.89373055447298E-12  -4.84721553756128E-26
      5.89373055447293E-12   1.11475201292424E-15
      2.50000000000000E-01
      0.00000000000000E+00   0.00000000000000E+00   0.00000000000000E+00   0.00000000000000E+00  -1.01131638616616E-10
     -1.04618532867230E-25  -1.01131638616616E-10   9.92633877135812E-16   4.50000000000000E-01   4.50000000000000E-01
      0.00000000000000E+00   0.00000000000000E+00   0.00000000000000E+00   0.00000000000000E+00   0.00000000000000E+00
      9.71331990096030E-16   0.00000000000000E+00   0.00000000000000E+00   0.00000000000000E+00   0.00000000000000E+00
      3.34668634268146E-19   1.47243453887187E-25   3.34668781511600E-19  -3.02200772195012E-15   5.00000000000000E-02
      5.00000000000000E-02   0.00000000000000E+00   0.00000000000000E+00   1.01131638281947E-10  -4.26249210199569E-26
      1.01131638281947E-10   1.05804185471827E-15
      3.00000000000000E-01
      0.00000000000000E+00   0.00000000000000E+00   0.00000000000000E+00   0.00000000000000E+00  -1.78275441495274E-09
     -1.21635764918986E-25  -1.78275441495274E-09   9.46841878795661E-16   5.40000000000000E-01   5.40000000000000E-01
      0.00000000000000E+00   0.00000000000000E+00   0.00000000000000E+00   0.00000000000000E+00   0.00000000000000E+00
      1.18280573012333E-15   0.00000000000000E+00   0.00000000000000E+00   0.00000000000000E+00   0.00000000000000E+00
     -7.74911452210841E-15   1.64419481676813E-25  -7.74911452194399E-15  -3.13719101686576E-15   5.00000000000000E-02
      5.00000000000000E-02   0.00000000000000E+00   0.00000000000000E+00   1.78276216406726E-09  -4.27837167578271E-26
      1.78276216406726E-09   1.00754340794677E-15
      3.50000000000000E-01
      0.00000000000000E+00   0.00000000000000E+00   0.00000000000000E+00   0.00000000000000E+00  -3.12865560229728E-08
     -8.80496894741900E-26  -3.12865560229728E-08   9.09450673975771E-16   6.30000000000000E-01   6.30000000000000E-01
      0.00000000000000E+00   0.00000000000000E+00   0.00000000000000E+00   0.00000000000000E+00   0.00000000000000E+00
      1.41944262614709E-15   0.00000000000000E+00   0.00000000000000E+00   0.00000000000000E+00   0.00000000000000E+00
     -1.26790347453334E-12   1.27069748461481E-25  -1.26790347453322E-12  -3.29448786552945E-15   5.00000000000000E-02
      5.00000000000000E-02   0.00000000000000E+00   0.00000000000000E+00   3.12878239264473E-08  -3.90200589872914E-26
      3.12878239264473E-08   9.65594565406591E-16
      4.00000000000000E-01
      0.00000000000000E+00   0.00000000000000E+00   0.00000000000000E+00   0.00000000000000E+00  -4.29262941492876E-07
     -8.43742186257574E-26  -4.29262941492876E-07   8.78822901591244E-16   7.20000000000000E-01   7.20000000000000E-01
      0.00000000000000E+00   0.00000000000000E+00   0.00000000000000E+00   0.00000000000000E+00   0.00000000000000E+00
      1.70396842862700E-15   0.00000000000000E+00   0.00000000000000E+00   0.00000000000000E+00   0.00000000000000E+00
      3.88460476080833E-18   1.24331494676393E-25   3.88460488513983E-18  -3.51418626985184E-15   5.00000000000000E-02
      5.00000000000000E-02   0.00000000000000E+00   0.00000000000000E+00   4.29262941488992E-07  -3.99572760506359E-26
      4.29262941488992E-07   9.31394939633600E-16
      4.50000000000000E-01
      0.00000000000000E+00   0.00000000000000E+00   0.00000000000000E+00   0.00000000000000E+00  -2.30787400638425E-06
     -9.60930134736011E-26  -2.30787400638425E-06   8.52733281162293E-16   8.10000000000000E-01   8.10000000000000E-01
      0.00000000000000E+00   0.00000000000000E+00   0.00000000000000E+00   0.00000000000000E+00   0.00000000000000E+00
      2.08441384748522E-15   0.00000000000000E+00   0.00000000000000E+00   0.00000000000000E+00   0.00000000000000E+00
     -3.92282162148366E-18   1.28169924996096E-25  -3.92282149331373E-18  -3.84012911231117E-15   5.00000000000000E-02
      5.00000000000000E-02   0.00000000000000E+00   0.00000000000000E+00   2.30787400638817E-06  -3.20769115224946E-26
      2.30787400638817E-06   9.02981983663660E-16
      5.00000000000000E-01
      0.00000000000000E+00   0.00000000000000E+00   0.00000000000000E+00   0.00000000000000E+00  -5.32031459401355E-06
     -8.44373968673762E-26  -5.32031459401355E-06   8.29398308950431E-16   9.00000000000000E-01   9.00000000000000E-01
      0.00000000000000E+00   0.00000000000000E+00   0.00000000000000E+00   0.00000000000000E+00   0.00000000000000E+00
      2.54962513092920E-15   0.00000000000000E+00   0.00000000000000E+00   0.00000000000000E+00   0.00000000000000E+00
     -7.34878897305261E-17   1.16696963729655E-25  -7.34878896138291E-17  -4.25722351286115E-15   5.00000000000000E-02
      5.00000000000000E-02   0.00000000000000E+00   0.00000000000000E+00   5.32031459408704E-06  -3.22595668622785E-26
      5.32031459408704E-06   8.78200072981521E-16
      5.50000000000000E-01
      0.00000000000000E+00   0.00000000000000E+00   0.00000000000000E+00   0.00000000000000E+00  -8.57871043760985E-06
     -5.62110160149384E-26  -8.57871043760985E-06   8.07816912211379E-16   9.90000000000000E-01   9.90000000000000E-01
      0.00000000000000E+00   0.00000000000000E+00   0.00000000000000E+00   0.00000000000000E+00   0.00000000000000E+00
      3.05475677365959E-15   0.00000000000000E+00   0.00000000000000E+00   0.00000000000000E+00   0.00000000000000E+00
      8.83307946448177E-18   8.91304613747874E-26   8.83307955361223E-18  -4.71819725881014E-15   5.00000000000000E-02
      5.00000000000000E-02   0.00000000000000E+00   0.00000000000000E+00   8.57871043760102E-06  -3.29194453598490E-26
      8.57871043760102E-06   8.55623572939176E-16
      6.00000000000000E-01
      0.00000000000000E+00   0.00000000000000E+00   0.00000000000000E+00   0.00000000000000E+00  -1.18279381484737E-05
     -9.10374184110711E-26  -1.18279381484737E-05   7.87441371798138E-16   1.08000000000000E+00   1.08000000000000E+00
      0.00000000000000E+00   0.00000000000000E+00   0.00000000000000E+00   0.00000000000000E+00   0.00000000000000E+00
      3.57890408513338E-15   0.00000000000000E+00   0.00000000000000E+00   0.00000000000000E+00   0.00000000000000E+00
      8.37312875146083E-17   1.22222128327404E-25   8.37312876368304E-17  -5.20085211329572E-15   5.00000000000000E-02
      5.00000000000000E-02   0.00000000000000E+00   0.00000000000000E+00   1.18279381483900E-05  -3.11847099163331E-26
      1.18279381483900E-05   8.34506656364199E-16
      6.50000000000000E-01
      0.00000000000000E+00   0.00000000000000E+00   0.00000000000000E+00   0.00000000000000E+00  -1.50088208705204E-05
     -1.09438308093766E-25  -1.50088208705204E-05   7.67943796088620E-16   1.17000000000000E+00   1.17000000000000E+00
      0.00000000000000E+00   0.00000000000000E+00   0.00000000000000E+00   0.00000000000000E+00   0.00000000000000E+00
      4.11375633364838E-15   0.00000000000000E+00   0.00000000000000E+00   0.00000000000000E+00   0.00000000000000E+00
     -4.91967890083234E-18   1.44106174192911E-25  -4.91967875672616E-18  -5.69612595613467E-15   5.00000000000000E-02
      5.00000000000000E-02   0.00000000000000E+00   0.00000000000000E+00   1.50088208705253E-05  -3.46678660991453E-26
      1.50088208705253E-05   8.14425826397680E-16
      7.00000000000000E-01
      0.00000000000000E+00   0.00000000000000E+00   0.00000000000000E+00   0.00000000000000E+00  -1.81080649709568E-05
     -8.28390619091129E-26  -1.81080649709568E-05   7.49112446717634E-16   1.26000000000000E+00   1.26000000000000E+00
      0.00000000000000E+00   0.00000000000000E+00   0.00000000000000E+00   0.00000000000000E+00   0.00000000000000E+00
      4.65541993253239E-15   0.00000000000000E+00   0.00000000000000E+00   0.00000000000000E+00   0.00000000000000E+00
      1.51719771228793E-17   1.10418322225939E-25   1.51719772332976E-17  -6.19964927172374E-15   5.00000000000000E-02
      5.00000000000000E-02   0.00000000000000E+00   0.00000000000000E+00   1.81080649709416E-05  -2.75792603168263E-26
      1.81080649709416E-05   7.95116892473715E-16
      7.50000000000000E-01
      0.00000000000000E+00   0.00000000000000E+00   0.00000000000000E+00   0.00000000000000E+00  -2.11250276457287E-05
     -8.85164081766936E-26  -2.11250276457287E-05   7.30802832686406E-16   1.35000000000000E+00   1.35000000000000E+00
      0.00000000000000E+00   0.00000000000000E+00   0.00000000000000E+00   0.00000000000000E+00   0.00000000000000E+00
      5.20178915276141E-15   0.00000000000000E+00   0.00000000000000E+00   0.00000000000000E+00   0.00000000000000E+00
      8.50322422207643E-18   1.29477976475776E-25   8.50322435155441E-18  -6.70899600719946E-15   5.00000000000000E-02
      5.00000000000000E-02   0.00000000000000E+00   0.00000000000000E+00   2.11250276457202E-05  -4.09615682990829E-26
      2.11250276457202E-05   7.76404021751645E-16
      8.00000000000000E-01
      0.00000000000000E+00   0.00000000000000E+00   0.00000000000000E+00   0.00000000000000E+00  -2.40628563633306E-05
     -9.86683148130139E-26  -2.40628563633306E-05   7.12912124875558E-16   1.44000000000000E+00   1.44000000000000E+00
      0.00000000000000E+00   0.00000000000000E+00   0.00000000000000E+00   0.00000000000000E+00   0.00000000000000E+00
      5.75160184551853E-15   0.00000000000000E+00   0.00000000000000E+00   0.00000000000000E+00   0.00000000000000E+00
     -1.48969867904460E-11   1.37847967100626E-25  -1.48969867904458E-11  -7.22267845802970E-15   5.00000000000000E-02
      5.00000000000000E-02   0.00000000000000E+00   0.00000000000000E+00   2.40628712603173E-05  -3.91796522876122E-26
      2.40628712603173E-05   7.58164487635619E-16
      8.50000000000000E-01
      0.00000000000000E+00   0.00000000000000E+00   0.00000000000000E+00   0.00000000000000E+00  -2.69257861026546E-05
     -1.04257616957194E-25  -2.69257861026546E-05   6.95364664252780E-16   1.53000000000000E+00   1.53000000000000E+00
      0.00000000000000E+00   0.00000000000000E+00   0.00000000000000E+00   0.00000000000000E+00   0.00000000000000E+00
      6.30404295918296E-15   0.00000000000000E+00   0.00000000000000E+00   0.00000000000000E+00   0.00000000000000E+00
     -7.52209217018043E-12   1.32024775026191E-25  -7.52209217018030E-12  -7.73971701839326E-15   5.00000000000000E-02
      5.00000000000000E-02   0.00000000000000E+00   0.00000000000000E+00   2.69257936247468E-05  -2.77671580689965E-26
      2.69257936247468E-05   7.40309394957522E-16
      9.00000000000000E-01
      0.00000000000000E+00   0.00000000000000E+00   0.00000000000000E+00   0.00000000000000E+00  -2.97180883437404E-05
     -1.19318204673841E-25  -2.97180883437404E-05   6.78103246236935E-16   1.62000000000000E+00   1.62000000000000E+00
      0.00000000000000E+00   0.00000000000000E+00   0.00000000000000E+00   0.00000000000000E+00   0.00000000000000E+00
      6.85855591575114E-15   0.00000000000000E+00   0.00000000000000E+00   0.00000000000000E+00   0.00000000000000E+00
     -4.00026704621609E-12   1.56313213924876E-25  -4.00026704621594E-12  -8.25943155614450E-15   5.00000000000000E-02
      5.00000000000000E-02   0.00000000000000E+00   0.00000000000000E+00   2.97180923440074E-05  -3.69950092510348E-26
      2.97180923440074E-05   7.22772394156425E-16
      9.50000000000000E-01
      0.00000000000000E+00   0.00000000000000E+00   0.00000000000000E+00   0.00000000000000E+00  -3.24438332519055E-05
     -8.42357075204964E-26  -3.24438332519055E-05   6.61083623735117E-16   1.71000000000000E+00   1.71000000000000E+00
      0.00000000000000E+00   0.00000000000000E+00   0.00000000000000E+00   0.00000000000000E+00   0.00000000000000E+00
      7.41474383583530E-15   0.00000000000000E+00   0.00000000000000E+00   0.00000000000000E+00   0.00000000000000E+00
     -2.22580078424760E-12   1.18341101971467E-25  -2.22580078424748E-12  -8.78133017703728E-15   5.00000000000000E-02
      5.00000000000000E-02   0.00000000000000E+00   0.00000000000000E+00   3.24438354777063E-05  -3.41053944509708E-26
      3.24438354777063E-05   7.05502717466855E-16
      1.00000000000000E+00
      0.00000000000000E+00   0.00000000000000E+00   0.00000000000000E+00   0.00000000000000E+00  -3.51066833051938E-05
     -8.54439906078227E-26  -3.51066833051938E-05   6.44270930776731E-16   1.80000000000000E+00   1.80000000000000E+00
      0.00000000000000E+00   0.00000000000000E+00   0.00000000000000E+00   0.00000000000000E+00   0.00000000000000E+00
      7.97231349245159E-15   0.00000000000000E+00   0.00000000000000E+00   0.00000000000000E+00   0.00000000000000E+00
     -1.28857979673125E-12   1.20761328798282E-25  -1.28857979673113E-12  -9.30504511914237E-15   5.00000000000000E-02
      5.00000000000000E-02   0.00000000000000E+00   0.00000000000000E+00   3.51066845937736E-05  -3.53173381904594E-26
      3.51066845937736E-05   6.88460695914033E-16
}
