DF-ISE text

Info {
  version   = 1.0
  type      = xyplot
  datasets  = [
    "time"
    "source OuterVoltage" "source InnerVoltage" "source QuasiFermiPotential" "source DisplacementCurrent" "source eCurrent"
    "source hCurrent" "source TotalCurrent" "source Charge" "gate OuterVoltage" "gate InnerVoltage"
    "gate QuasiFermiPotential" "gate DisplacementCurrent" "gate eCurrent" "gate hCurrent" "gate TotalCurrent"
    "gate Charge" "substrate OuterVoltage" "substrate InnerVoltage" "substrate QuasiFermiPotential" "substrate DisplacementCurrent"
    "substrate eCurrent" "substrate hCurrent" "substrate TotalCurrent" "substrate Charge" "drain OuterVoltage"
    "drain InnerVoltage" "drain QuasiFermiPotential" "drain DisplacementCurrent" "drain eCurrent" "drain hCurrent"
    "drain TotalCurrent" "drain Charge" ]
  functions = [
    Time
    OuterVoltage InnerVoltage QuasiFermiPotential DisplacementCurrent eCurrent
    hCurrent TotalCurrent Charge OuterVoltage InnerVoltage
    QuasiFermiPotential DisplacementCurrent eCurrent hCurrent TotalCurrent
    Charge OuterVoltage InnerVoltage QuasiFermiPotential DisplacementCurrent
    eCurrent hCurrent TotalCurrent Charge OuterVoltage
    InnerVoltage QuasiFermiPotential DisplacementCurrent eCurrent hCurrent
    TotalCurrent Charge ]
}

Data {
      5.00000000000000E-02
      0.00000000000000E+00   0.00000000000000E+00   0.00000000000000E+00   0.00000000000000E+00  -3.19094113835964E-05
     -3.05428836441235E-38  -3.19094113835964E-05   1.81770416489276E-15   9.00000000000000E-02   9.00000000000000E-02
      0.00000000000000E+00   0.00000000000000E+00   0.00000000000000E+00   0.00000000000000E+00   0.00000000000000E+00
     -1.42210634028127E-15  -1.35000000000000E+00  -1.35000000000000E+00   0.00000000000000E+00   0.00000000000000E+00
     -2.11665946619689E-14   3.05428836441234E-38  -2.11665946619689E-14  -4.07273355947365E-15   1.80000000000000E+00
      1.80000000000000E+00   0.00000000000000E+00   0.00000000000000E+00   3.19094114047630E-05   1.52851219953269E-55
      3.19094114047630E-05   3.67713573486216E-15
      1.00000000000000E-01
      0.00000000000000E+00   0.00000000000000E+00   0.00000000000000E+00   0.00000000000000E+00  -4.47725033208467E-05
     -3.68739393697049E-38  -4.47725033208467E-05   1.75760481045651E-15   1.80000000000000E-01   1.80000000000000E-01
      0.00000000000000E+00   0.00000000000000E+00   0.00000000000000E+00   0.00000000000000E+00   0.00000000000000E+00
     -1.31625915931002E-15  -1.35000000000000E+00  -1.35000000000000E+00   0.00000000000000E+00   0.00000000000000E+00
      9.22129195373373E-15   3.68739393697049E-38   9.22129195373373E-15  -4.07626935746398E-15   1.80000000000000E+00
      1.80000000000000E+00   0.00000000000000E+00   0.00000000000000E+00   4.47725033116254E-05   2.34713602583304E-55
      4.47725033116254E-05   3.63492370631750E-15
      1.50000000000000E-01
      0.00000000000000E+00   0.00000000000000E+00   0.00000000000000E+00   0.00000000000000E+00  -6.06053906568562E-05
     -3.16736027920239E-38  -6.06053906568562E-05   1.69692153931361E-15   2.70000000000000E-01   2.70000000000000E-01
      0.00000000000000E+00   0.00000000000000E+00   0.00000000000000E+00   0.00000000000000E+00   0.00000000000000E+00
     -1.20738719021402E-15  -1.35000000000000E+00  -1.35000000000000E+00   0.00000000000000E+00   0.00000000000000E+00
      1.48112638810632E-14   3.16736027920239E-38   1.48112638810632E-14  -4.08119713695401E-15   1.80000000000000E+00
      1.80000000000000E+00   0.00000000000000E+00   0.00000000000000E+00   6.06053906420449E-05   1.98123473784383E-55
      6.06053906420449E-05   3.59166278785442E-15
      2.00000000000000E-01
      0.00000000000000E+00   0.00000000000000E+00   0.00000000000000E+00   0.00000000000000E+00  -8.00480744009535E-05
     -2.02331229695080E-38  -8.00480744009535E-05   1.63720470735974E-15   3.60000000000000E-01   3.60000000000000E-01
      0.00000000000000E+00   0.00000000000000E+00   0.00000000000000E+00   0.00000000000000E+00   0.00000000000000E+00
     -1.09418990894115E-15  -1.35000000000000E+00  -1.35000000000000E+00   0.00000000000000E+00   0.00000000000000E+00
     -7.89029653379908E-19   2.02331229695080E-38  -7.89029653379908E-19  -4.09002634334982E-15   1.80000000000000E+00
      1.80000000000000E+00   0.00000000000000E+00   0.00000000000000E+00   8.00480744009542E-05  -1.73786299602910E-55
      8.00480744009542E-05   3.54701154493122E-15
      2.50000000000000E-01
      0.00000000000000E+00   0.00000000000000E+00   0.00000000000000E+00   0.00000000000000E+00  -1.04173451371854E-04
     -2.30279137200023E-38  -1.04173451371854E-04   1.58197738927781E-15   4.50000000000000E-01   4.50000000000000E-01
      0.00000000000000E+00   0.00000000000000E+00   0.00000000000000E+00   0.00000000000000E+00   0.00000000000000E+00
     -9.73776791973205E-16  -1.35000000000000E+00  -1.35000000000000E+00   0.00000000000000E+00   0.00000000000000E+00
     -9.32277241863526E-19   2.30279137200023E-38  -9.32277241863526E-19  -4.10858858650606E-15   1.80000000000000E+00
      1.80000000000000E+00   0.00000000000000E+00   0.00000000000000E+00   1.04173451371855E-04   3.26116705717520E-55
      1.04173451371855E-04   3.50038798920145E-15
      3.00000000000000E-01
      0.00000000000000E+00   0.00000000000000E+00   0.00000000000000E+00   0.00000000000000E+00  -1.34687314893957E-04
     -2.61799707518679E-38  -1.34687314893957E-04   1.53505998178302E-15   5.40000000000000E-01   5.40000000000000E-01
      0.00000000000000E+00   0.00000000000000E+00   0.00000000000000E+00   0.00000000000000E+00   0.00000000000000E+00
     -8.42760735960528E-16  -1.35000000000000E+00  -1.35000000000000E+00   0.00000000000000E+00   0.00000000000000E+00
     -7.73738357227404E-18   2.61799707518679E-38  -7.73738357227404E-18  -4.14319457533685E-15   1.80000000000000E+00
      1.80000000000000E+00   0.00000000000000E+00   0.00000000000000E+00   1.34687314893965E-04   2.66679236608696E-55
      1.34687314893965E-04   3.45089532951435E-15
      3.50000000000000E-01
      0.00000000000000E+00   0.00000000000000E+00   0.00000000000000E+00   0.00000000000000E+00  -1.71832162601499E-04
     -2.07403484957721E-38  -1.71832162601499E-04   1.49655322339174E-15   6.30000000000000E-01   6.30000000000000E-01
      0.00000000000000E+00   0.00000000000000E+00   0.00000000000000E+00   0.00000000000000E+00   0.00000000000000E+00
     -7.00830466354621E-16  -1.35000000000000E+00  -1.35000000000000E+00   0.00000000000000E+00   0.00000000000000E+00
     -4.46390676728456E-18   2.07403484957721E-38  -4.46390676728456E-18  -4.19389788552477E-15   1.80000000000000E+00
      1.80000000000000E+00   0.00000000000000E+00   0.00000000000000E+00   1.71832162601503E-04   3.34117453693309E-55
      1.71832162601503E-04   3.39817512848765E-15
      4.00000000000000E-01
      0.00000000000000E+00   0.00000000000000E+00   0.00000000000000E+00   0.00000000000000E+00  -2.15321548658520E-04
     -2.35922219017160E-38  -2.15321548658520E-04   1.46409945916421E-15   7.20000000000000E-01   7.20000000000000E-01
      0.00000000000000E+00   0.00000000000000E+00   0.00000000000000E+00   0.00000000000000E+00   0.00000000000000E+00
     -5.49851768382031E-16  -1.35000000000000E+00  -1.35000000000000E+00   0.00000000000000E+00   0.00000000000000E+00
     -8.60173832417461E-19   2.35922219017160E-38  -8.60173832417461E-19  -4.25679043535848E-15   1.80000000000000E+00
      1.80000000000000E+00   0.00000000000000E+00   0.00000000000000E+00   2.15321548658521E-04   4.52898514512843E-55
      2.15321548658521E-04   3.34254274457631E-15
      4.50000000000000E-01
      0.00000000000000E+00   0.00000000000000E+00   0.00000000000000E+00   0.00000000000000E+00  -2.63974316117605E-04
     -1.19507164198597E-38  -2.63974316117605E-04   1.43542827172007E-15   8.10000000000000E-01   8.10000000000000E-01
      0.00000000000000E+00   0.00000000000000E+00   0.00000000000000E+00   0.00000000000000E+00   0.00000000000000E+00
     -3.91934421858857E-16  -1.35000000000000E+00  -1.35000000000000E+00   0.00000000000000E+00   0.00000000000000E+00
     -2.02313539763320E-13   1.19507164198597E-38  -2.02313539763320E-13  -4.32850671226241E-15   1.80000000000000E+00
      1.80000000000000E+00   0.00000000000000E+00   0.00000000000000E+00   2.63974316319919E-04  -5.72903990543544E-56
      2.63974316319919E-04   3.28501286240120E-15
      5.00000000000000E-01
      0.00000000000000E+00   0.00000000000000E+00   0.00000000000000E+00   0.00000000000000E+00  -3.16599892674524E-04
     -2.81527787507968E-38  -3.16599892674524E-04   1.40915787906720E-15   9.00000000000000E-01   9.00000000000000E-01
      0.00000000000000E+00   0.00000000000000E+00   0.00000000000000E+00   0.00000000000000E+00   0.00000000000000E+00
     -2.28621393023544E-16  -1.35000000000000E+00  -1.35000000000000E+00   0.00000000000000E+00   0.00000000000000E+00
     -5.36207255400168E-14   2.81527787507968E-38  -5.36207255400168E-14  -4.40715291348450E-15   1.80000000000000E+00
      1.80000000000000E+00   0.00000000000000E+00   0.00000000000000E+00   3.16599892728144E-04   3.55185592336192E-55
      3.16599892728144E-04   3.22661642744085E-15
      5.50000000000000E-01
      0.00000000000000E+00   0.00000000000000E+00   0.00000000000000E+00   0.00000000000000E+00  -3.72405423475034E-04
     -1.07518119178319E-38  -3.72405423475034E-04   1.38449167557318E-15   9.90000000000000E-01   9.90000000000000E-01
      0.00000000000000E+00   0.00000000000000E+00   0.00000000000000E+00   0.00000000000000E+00   0.00000000000000E+00
     -6.10243089486537E-17  -1.35000000000000E+00  -1.35000000000000E+00   0.00000000000000E+00   0.00000000000000E+00
     -1.25721281251099E-14   1.07518119178319E-38  -1.25721281251099E-14  -4.49154653935890E-15   1.80000000000000E+00
      1.80000000000000E+00   0.00000000000000E+00   0.00000000000000E+00   3.72405423487606E-04   1.04941156624020E-55
      3.72405423487606E-04   3.16807917273438E-15
      6.00000000000000E-01
      0.00000000000000E+00   0.00000000000000E+00   0.00000000000000E+00   0.00000000000000E+00  -4.30806020670046E-04
     -3.72955821710720E-38  -4.30806020670046E-04   1.36095232731073E-15   1.08000000000000E+00   1.08000000000000E+00
      0.00000000000000E+00   0.00000000000000E+00   0.00000000000000E+00   0.00000000000000E+00   0.00000000000000E+00
      1.10021151303416E-16  -1.35000000000000E+00  -1.35000000000000E+00   0.00000000000000E+00   0.00000000000000E+00
     -3.76389217858766E-15   3.72955821710720E-38  -3.76389217858766E-15  -4.58088117125804E-15   1.80000000000000E+00
      1.80000000000000E+00   0.00000000000000E+00   0.00000000000000E+00   4.30806020673810E-04   4.73742525037306E-55
      4.30806020673810E-04   3.10990769264390E-15
      6.50000000000000E-01
      0.00000000000000E+00   0.00000000000000E+00   0.00000000000000E+00   0.00000000000000E+00  -4.91440045320221E-04
     -3.44721125553277E-38  -4.91440045320221E-04   1.33823587215675E-15   1.17000000000000E+00   1.17000000000000E+00
      0.00000000000000E+00   0.00000000000000E+00   0.00000000000000E+00   0.00000000000000E+00   0.00000000000000E+00
      2.83858892014223E-16  -1.35000000000000E+00  -1.35000000000000E+00   0.00000000000000E+00   0.00000000000000E+00
     -2.02338783659452E-15   3.44721125553277E-38  -2.02338783659452E-15  -4.67442957261342E-15   1.80000000000000E+00
      1.80000000000000E+00   0.00000000000000E+00   0.00000000000000E+00   4.91440045322244E-04   1.37609069617845E-55
      4.91440045322244E-04   3.05233480844245E-15
      7.00000000000000E-01
      0.00000000000000E+00   0.00000000000000E+00   0.00000000000000E+00   0.00000000000000E+00  -5.53811310502320E-04
     -2.33457255084474E-38  -5.53811310502320E-04   1.31616394811193E-15   1.26000000000000E+00   1.26000000000000E+00
      0.00000000000000E+00   0.00000000000000E+00   0.00000000000000E+00   0.00000000000000E+00   0.00000000000000E+00
      4.60211141447327E-16  -1.35000000000000E+00  -1.35000000000000E+00   0.00000000000000E+00   0.00000000000000E+00
     -4.46237331351952E-16   2.33457255084474E-38  -4.46237331351952E-16  -4.77178872119946E-15   1.80000000000000E+00
      1.80000000000000E+00   0.00000000000000E+00   0.00000000000000E+00   5.53811310502766E-04   1.06689977300799E-55
      5.53811310502766E-04   2.99541363164020E-15
      7.50000000000000E-01
      0.00000000000000E+00   0.00000000000000E+00   0.00000000000000E+00   0.00000000000000E+00  -6.17800571205867E-04
     -2.16288484629339E-38  -6.17800571205867E-04   1.29458951730707E-15   1.35000000000000E+00   1.35000000000000E+00
      0.00000000000000E+00   0.00000000000000E+00   0.00000000000000E+00   0.00000000000000E+00   0.00000000000000E+00
      6.38699673835860E-16  -1.35000000000000E+00  -1.35000000000000E+00   0.00000000000000E+00   0.00000000000000E+00
     -5.64017495750933E-17   2.16288484629339E-38  -5.64017495750933E-17  -4.87244987954312E-15   1.80000000000000E+00
      1.80000000000000E+00   0.00000000000000E+00   0.00000000000000E+00   6.17800571205924E-04   1.91951123984290E-55
      6.17800571205924E-04   2.93916068840019E-15
      8.00000000000000E-01
      0.00000000000000E+00   0.00000000000000E+00   0.00000000000000E+00   0.00000000000000E+00  -6.83120884652015E-04
     -2.28125365712297E-38  -6.83120884652015E-04   1.27342637278417E-15   1.44000000000000E+00   1.44000000000000E+00
      0.00000000000000E+00   0.00000000000000E+00   0.00000000000000E+00   0.00000000000000E+00   0.00000000000000E+00
      8.19259541157429E-16  -1.35000000000000E+00  -1.35000000000000E+00   0.00000000000000E+00   0.00000000000000E+00
     -1.81661463380130E-17   2.28125365712297E-38  -1.81661463380130E-17  -4.97631616898801E-15   1.80000000000000E+00
      1.80000000000000E+00   0.00000000000000E+00   0.00000000000000E+00   6.83120884652033E-04   3.61602973705495E-55
      6.83120884652033E-04   2.88363025504641E-15
      8.50000000000000E-01
      0.00000000000000E+00   0.00000000000000E+00   0.00000000000000E+00   0.00000000000000E+00  -7.49596622143716E-04
     -1.50385988052655E-38  -7.49596622143716E-04   1.25260200390571E-15   1.53000000000000E+00   1.53000000000000E+00
      0.00000000000000E+00   0.00000000000000E+00   0.00000000000000E+00   0.00000000000000E+00   0.00000000000000E+00
      1.00173255009815E-15  -1.35000000000000E+00  -1.35000000000000E+00   0.00000000000000E+00   0.00000000000000E+00
     -6.45898215012727E-17   1.50385988052655E-38  -6.45898215012727E-17  -5.08329888492813E-15   1.80000000000000E+00
      1.80000000000000E+00   0.00000000000000E+00   0.00000000000000E+00   7.49596622143781E-04   1.00769071826834E-55
      7.49596622143781E-04   2.82896433092428E-15
      9.00000000000000E-01
      0.00000000000000E+00   0.00000000000000E+00   0.00000000000000E+00   0.00000000000000E+00  -8.17174918106636E-04
     -2.57323958579539E-38  -8.17174918106636E-04   1.23204950517772E-15   1.62000000000000E+00   1.62000000000000E+00
      0.00000000000000E+00   0.00000000000000E+00   0.00000000000000E+00   0.00000000000000E+00   0.00000000000000E+00
      1.18584058310976E-15  -1.35000000000000E+00  -1.35000000000000E+00   0.00000000000000E+00   0.00000000000000E+00
     -6.21256596965031E-17   2.57323958579539E-38  -6.21256596965031E-17  -5.19318757191595E-15   1.80000000000000E+00
      1.80000000000000E+00   0.00000000000000E+00   0.00000000000000E+00   8.17174918106698E-04   5.86656007217471E-55
      8.17174918106698E-04   2.77529748362847E-15
      9.50000000000000E-01
      0.00000000000000E+00   0.00000000000000E+00   0.00000000000000E+00   0.00000000000000E+00  -8.85774635284365E-04
     -1.99386037175406E-38  -8.85774635284365E-04   1.21172091228669E-15   1.71000000000000E+00   1.71000000000000E+00
      0.00000000000000E+00   0.00000000000000E+00   0.00000000000000E+00   0.00000000000000E+00   0.00000000000000E+00
      1.37147583081026E-15  -1.35000000000000E+00  -1.35000000000000E+00   0.00000000000000E+00   0.00000000000000E+00
     -4.21610292737703E-18   1.99386037175406E-38  -4.21610292737703E-18  -5.30588817954385E-15   1.80000000000000E+00
      1.80000000000000E+00   0.00000000000000E+00   0.00000000000000E+00   8.85774635284369E-04  -8.96081067922566E-56
      8.85774635284369E-04   2.72269143644691E-15
      1.00000000000000E+00
      0.00000000000000E+00   0.00000000000000E+00   0.00000000000000E+00   0.00000000000000E+00  -9.55327150949987E-04
     -1.67409145870466E-38  -9.55327150949987E-04   1.19158019176124E-15   1.80000000000000E+00   1.80000000000000E+00
      0.00000000000000E+00   0.00000000000000E+00   0.00000000000000E+00   0.00000000000000E+00   0.00000000000000E+00
      1.55872878902575E-15  -1.35000000000000E+00  -1.35000000000000E+00   0.00000000000000E+00   0.00000000000000E+00
      3.60659698387123E-15   1.67409145870466E-38   3.60659698387123E-15  -5.42165928742377E-15   1.80000000000000E+00
      1.80000000000000E+00   0.00000000000000E+00   0.00000000000000E+00   9.55327150946380E-04   8.71434375472303E-56
      9.55327150946380E-04   2.67135030663679E-15
}
