DF-ISE text

Info {
  version   = 1.0
  type      = xyplot
  datasets  = [
    "time"
    "source OuterVoltage" "source InnerVoltage" "source QuasiFermiPotential" "source DisplacementCurrent" "source eCurrent"
    "source hCurrent" "source TotalCurrent" "source Charge" "gate OuterVoltage" "gate InnerVoltage"
    "gate QuasiFermiPotential" "gate DisplacementCurrent" "gate eCurrent" "gate hCurrent" "gate TotalCurrent"
    "gate Charge" "substrate OuterVoltage" "substrate InnerVoltage" "substrate QuasiFermiPotential" "substrate DisplacementCurrent"
    "substrate eCurrent" "substrate hCurrent" "substrate TotalCurrent" "substrate Charge" "drain OuterVoltage"
    "drain InnerVoltage" "drain QuasiFermiPotential" "drain DisplacementCurrent" "drain eCurrent" "drain hCurrent"
    "drain TotalCurrent" "drain Charge" ]
  functions = [
    Time
    OuterVoltage InnerVoltage QuasiFermiPotential DisplacementCurrent eCurrent
    hCurrent TotalCurrent Charge OuterVoltage InnerVoltage
    QuasiFermiPotential DisplacementCurrent eCurrent hCurrent TotalCurrent
    Charge OuterVoltage InnerVoltage QuasiFermiPotential DisplacementCurrent
    eCurrent hCurrent TotalCurrent Charge OuterVoltage
    InnerVoltage QuasiFermiPotential DisplacementCurrent eCurrent hCurrent
    TotalCurrent Charge ]
}

Data {
      5.00000000000000E-02
      0.00000000000000E+00   0.00000000000000E+00   0.00000000000000E+00   0.00000000000000E+00  -5.18166126952161E-05
     -8.21575478709931E-30  -5.18166126952161E-05   1.36510383319889E-15   9.00000000000000E-02   9.00000000000000E-02
      0.00000000000000E+00   0.00000000000000E+00   0.00000000000000E+00   0.00000000000000E+00   0.00000000000000E+00
     -1.42632583522243E-15  -4.50000000000000E-01  -4.50000000000000E-01   0.00000000000000E+00   0.00000000000000E+00
     -1.60452266669210E-14   8.21575478710102E-30  -1.60452266669210E-14  -3.27081117836713E-15   1.80000000000000E+00
      1.80000000000000E+00   0.00000000000000E+00   0.00000000000000E+00   5.18166127112614E-05  -1.71019790733648E-42
      5.18166127112614E-05   3.33203318039067E-15
      1.00000000000000E-01
      0.00000000000000E+00   0.00000000000000E+00   0.00000000000000E+00   0.00000000000000E+00  -6.61280250954185E-05
     -1.04761289001953E-29  -6.61280250954185E-05   1.30537091352851E-15   1.80000000000000E-01   1.80000000000000E-01
      0.00000000000000E+00   0.00000000000000E+00   0.00000000000000E+00   0.00000000000000E+00   0.00000000000000E+00
     -1.32025042095699E-15  -4.50000000000000E-01  -4.50000000000000E-01   0.00000000000000E+00   0.00000000000000E+00
      7.11580096569269E-15   1.04761289001950E-29   7.11580096569270E-15  -3.27473470107782E-15   1.80000000000000E+00
      1.80000000000000E+00   0.00000000000000E+00   0.00000000000000E+00   6.61280250883027E-05   3.48293598976865E-43
      6.61280250883027E-05   3.28961420850629E-15
      1.50000000000000E-01
      0.00000000000000E+00   0.00000000000000E+00   0.00000000000000E+00   0.00000000000000E+00  -8.30500910136116E-05
     -8.81983889676829E-30  -8.30500910136116E-05   1.24496138463170E-15   2.70000000000000E-01   2.70000000000000E-01
      0.00000000000000E+00   0.00000000000000E+00   0.00000000000000E+00   0.00000000000000E+00   0.00000000000000E+00
     -1.21125528191569E-15  -4.50000000000000E-01  -4.50000000000000E-01   0.00000000000000E+00   0.00000000000000E+00
      9.90521699153008E-15   8.81983889676819E-30   9.90521699153009E-15  -3.27991962011607E-15   1.80000000000000E+00
      1.80000000000000E+00   0.00000000000000E+00   0.00000000000000E+00   8.30500910037063E-05   9.73118114449665E-44
      8.30500910037063E-05   3.24621351740005E-15
      2.00000000000000E-01
      0.00000000000000E+00   0.00000000000000E+00   0.00000000000000E+00   0.00000000000000E+00  -1.03267838199088E-04
     -1.14678231877343E-29  -1.03267838199088E-04   1.18538234018694E-15   3.60000000000000E-01   3.60000000000000E-01
      0.00000000000000E+00   0.00000000000000E+00   0.00000000000000E+00   0.00000000000000E+00   0.00000000000000E+00
     -1.09806751895316E-15  -4.50000000000000E-01  -4.50000000000000E-01   0.00000000000000E+00   0.00000000000000E+00
      9.48418896993809E-14   1.14678231877343E-29   9.48418896993809E-14  -3.28880269243132E-15   1.80000000000000E+00
      1.80000000000000E+00   0.00000000000000E+00   0.00000000000000E+00   1.03267838104246E-04  -1.04839095199494E-45
      1.03267838104246E-04   3.20148787119754E-15
      2.50000000000000E-01
      0.00000000000000E+00   0.00000000000000E+00   0.00000000000000E+00   0.00000000000000E+00  -1.27858347887474E-04
     -1.03780267413322E-29  -1.27858347887474E-04   1.13007705442152E-15   4.50000000000000E-01   4.50000000000000E-01
      0.00000000000000E+00   0.00000000000000E+00   0.00000000000000E+00   0.00000000000000E+00   0.00000000000000E+00
     -9.77847144668527E-16  -4.50000000000000E-01  -4.50000000000000E-01   0.00000000000000E+00   0.00000000000000E+00
     -1.13370127988011E-18   1.03780267413323E-29  -1.13370127986973E-18  -3.30709243861958E-15   1.80000000000000E+00
      1.80000000000000E+00   0.00000000000000E+00   0.00000000000000E+00   1.27858347887475E-04  -7.65094693134355E-46
      1.27858347887475E-04   3.15486252886658E-15
      3.00000000000000E-01
      0.00000000000000E+00   0.00000000000000E+00   0.00000000000000E+00   0.00000000000000E+00  -1.58604782439063E-04
     -9.92322329619748E-30  -1.58604782439063E-04   1.08293046895434E-15   5.40000000000000E-01   5.40000000000000E-01
      0.00000000000000E+00   0.00000000000000E+00   0.00000000000000E+00   0.00000000000000E+00   0.00000000000000E+00
     -8.47140751382458E-16  -4.50000000000000E-01  -4.50000000000000E-01   0.00000000000000E+00   0.00000000000000E+00
     -2.69504377597588E-18   9.92322329619748E-30  -2.69504377596595E-18  -3.34120301912645E-15   1.80000000000000E+00
      1.80000000000000E+00   0.00000000000000E+00   0.00000000000000E+00   1.58604782439065E-04   6.26603030216045E-46
      1.58604782439065E-04   3.10541330155457E-15
      3.50000000000000E-01
      0.00000000000000E+00   0.00000000000000E+00   0.00000000000000E+00   0.00000000000000E+00  -1.95812101815727E-04
     -9.77825940166416E-30  -1.95812101815727E-04   1.04422057573253E-15   6.30000000000000E-01   6.30000000000000E-01
      0.00000000000000E+00   0.00000000000000E+00   0.00000000000000E+00   0.00000000000000E+00   0.00000000000000E+00
     -7.05471369631410E-16  -4.50000000000000E-01  -4.50000000000000E-01   0.00000000000000E+00   0.00000000000000E+00
     -4.11161109072136E-18   9.77825940166416E-30  -4.11161109071158E-18  -3.39147063641343E-15   1.80000000000000E+00
      1.80000000000000E+00   0.00000000000000E+00   0.00000000000000E+00   1.95812101815731E-04   3.16037137039594E-47
      1.95812101815731E-04   3.05272143031230E-15
      4.00000000000000E-01
      0.00000000000000E+00   0.00000000000000E+00   0.00000000000000E+00   0.00000000000000E+00  -2.39359203685117E-04
     -1.00046157601832E-29  -2.39359203685117E-04   1.01165573125257E-15   7.20000000000000E-01   7.20000000000000E-01
      0.00000000000000E+00   0.00000000000000E+00   0.00000000000000E+00   0.00000000000000E+00   0.00000000000000E+00
     -5.54627774883675E-16  -4.50000000000000E-01  -4.50000000000000E-01   0.00000000000000E+00   0.00000000000000E+00
      1.73571178792947E-18   1.00046157601832E-29   1.73571178793948E-18  -3.45403461452339E-15   1.80000000000000E+00
      1.80000000000000E+00   0.00000000000000E+00   0.00000000000000E+00   2.39359203685115E-04  -4.71571155949302E-47
      2.39359203685115E-04   2.99700665815450E-15
      4.50000000000000E-01
      0.00000000000000E+00   0.00000000000000E+00   0.00000000000000E+00   0.00000000000000E+00  -2.88067943294758E-04
     -8.80727343443840E-30  -2.88067943294758E-04   9.82933861211178E-16   8.10000000000000E-01   8.10000000000000E-01
      0.00000000000000E+00   0.00000000000000E+00   0.00000000000000E+00   0.00000000000000E+00   0.00000000000000E+00
     -3.96735656447213E-16  -4.50000000000000E-01  -4.50000000000000E-01   0.00000000000000E+00   0.00000000000000E+00
     -2.20874088614160E-13   8.80727343443840E-30  -2.20874088614160E-13  -3.52549892147296E-15   1.80000000000000E+00
      1.80000000000000E+00   0.00000000000000E+00   0.00000000000000E+00   2.88067943515632E-04   1.50344472589251E-46
      2.88067943515632E-04   2.93930071670899E-15
      5.00000000000000E-01
      0.00000000000000E+00   0.00000000000000E+00   0.00000000000000E+00   0.00000000000000E+00  -3.40756059060197E-04
     -1.07200809680281E-29  -3.40756059060197E-04   9.56650395438587E-16   9.00000000000000E-01   9.00000000000000E-01
      0.00000000000000E+00   0.00000000000000E+00   0.00000000000000E+00   0.00000000000000E+00   0.00000000000000E+00
     -2.33370579488424E-16  -4.50000000000000E-01  -4.50000000000000E-01   0.00000000000000E+00   0.00000000000000E+00
     -6.28960130581239E-14   1.07200809680281E-29  -6.28960130581239E-14  -3.60396803819979E-15   1.80000000000000E+00
      1.80000000000000E+00   0.00000000000000E+00   0.00000000000000E+00   3.40756059123093E-04  -4.82891783417113E-47
      3.40756059123093E-04   2.88068822224964E-15
      5.50000000000000E-01
      0.00000000000000E+00   0.00000000000000E+00   0.00000000000000E+00   0.00000000000000E+00  -3.96653235878078E-04
     -7.90975911859507E-30  -3.96653235878078E-04   9.31989916930702E-16   9.90000000000000E-01   9.90000000000000E-01
      0.00000000000000E+00   0.00000000000000E+00   0.00000000000000E+00   0.00000000000000E+00   0.00000000000000E+00
     -6.56966811999949E-17  -4.50000000000000E-01  -4.50000000000000E-01   0.00000000000000E+00   0.00000000000000E+00
     -1.56432080958997E-14   7.90975911859506E-30  -1.56432080958997E-14  -3.68821615531080E-15   1.80000000000000E+00
      1.80000000000000E+00   0.00000000000000E+00   0.00000000000000E+00   3.96653235893722E-04   3.72168607188225E-48
      3.96653235893722E-04   2.82192291958009E-15
      6.00000000000000E-01
      0.00000000000000E+00   0.00000000000000E+00   0.00000000000000E+00   0.00000000000000E+00  -4.55131242673131E-04
     -9.72422033742703E-30  -4.55131242673131E-04   9.08471872904647E-16   1.08000000000000E+00   1.08000000000000E+00
      0.00000000000000E+00   0.00000000000000E+00   0.00000000000000E+00   0.00000000000000E+00   0.00000000000000E+00
      1.05460834945118E-16  -4.50000000000000E-01  -4.50000000000000E-01   0.00000000000000E+00   0.00000000000000E+00
     -4.33623431121030E-15   9.72422033742704E-30  -4.33623431121029E-15  -3.77747887618991E-15   1.80000000000000E+00
      1.80000000000000E+00   0.00000000000000E+00   0.00000000000000E+00   4.55131242677467E-04   1.47844435548142E-47
      4.55131242677467E-04   2.76354616834014E-15
      6.50000000000000E-01
      0.00000000000000E+00   0.00000000000000E+00   0.00000000000000E+00   0.00000000000000E+00  -5.15863502881467E-04
     -1.00451391943439E-29  -5.15863502881467E-04   8.85785060326309E-16   1.17000000000000E+00   1.17000000000000E+00
      0.00000000000000E+00   0.00000000000000E+00   0.00000000000000E+00   0.00000000000000E+00   0.00000000000000E+00
      2.79412710657814E-16  -4.50000000000000E-01  -4.50000000000000E-01   0.00000000000000E+00   0.00000000000000E+00
     -2.60463694216816E-15   1.00451391943439E-29  -2.60463694216815E-15  -3.87099122213576E-15   1.80000000000000E+00
      1.80000000000000E+00   0.00000000000000E+00   0.00000000000000E+00   5.15863502884071E-04   9.23828162372176E-47
      5.15863502884071E-04   2.70579345115164E-15
      7.00000000000000E-01
      0.00000000000000E+00   0.00000000000000E+00   0.00000000000000E+00   0.00000000000000E+00  -5.78314966940602E-04
     -1.04015184835357E-29  -5.78314966940602E-04   8.63751643702604E-16   1.26000000000000E+00   1.26000000000000E+00
      0.00000000000000E+00   0.00000000000000E+00   0.00000000000000E+00   0.00000000000000E+00   0.00000000000000E+00
      4.55909553469501E-16  -4.50000000000000E-01  -4.50000000000000E-01   0.00000000000000E+00   0.00000000000000E+00
     -5.51017078990658E-16   1.04015184835357E-29  -5.51017078990648E-16  -3.96837053611319E-15   1.80000000000000E+00
      1.80000000000000E+00   0.00000000000000E+00   0.00000000000000E+00   5.78314966941153E-04   2.99512980365987E-47
      5.78314966941153E-04   2.64870933894107E-15
      7.50000000000000E-01
      0.00000000000000E+00   0.00000000000000E+00   0.00000000000000E+00   0.00000000000000E+00  -6.42375596564808E-04
     -9.24052577509844E-30  -6.42375596564808E-04   8.42222154756346E-16   1.35000000000000E+00   1.35000000000000E+00
      0.00000000000000E+00   0.00000000000000E+00   0.00000000000000E+00   0.00000000000000E+00   0.00000000000000E+00
      6.34555205707579E-16  -4.50000000000000E-01  -4.50000000000000E-01   0.00000000000000E+00   0.00000000000000E+00
     -7.91079120175453E-17   9.24052577509844E-30  -7.91079120175361E-17  -4.06908940892451E-15   1.80000000000000E+00
      1.80000000000000E+00   0.00000000000000E+00   0.00000000000000E+00   6.42375596564887E-04   1.19969490656877E-48
      6.42375596564887E-04   2.59231204846059E-15
      8.00000000000000E-01
      0.00000000000000E+00   0.00000000000000E+00   0.00000000000000E+00   0.00000000000000E+00  -7.07772364985584E-04
     -8.53990653600999E-30  -7.07772364985584E-04   8.21107791516233E-16   1.44000000000000E+00   1.44000000000000E+00
      0.00000000000000E+00   0.00000000000000E+00   0.00000000000000E+00   0.00000000000000E+00   0.00000000000000E+00
      8.15269043107531E-16  -4.50000000000000E-01  -4.50000000000000E-01   0.00000000000000E+00   0.00000000000000E+00
     -3.26454118842743E-17   8.53990653601000E-30  -3.26454118842658E-17  -4.17302268079611E-15   1.80000000000000E+00
      1.80000000000000E+00   0.00000000000000E+00   0.00000000000000E+00   7.07772364985617E-04   1.11050618623350E-48
      7.07772364985617E-04   2.53664584617235E-15
      8.50000000000000E-01
      0.00000000000000E+00   0.00000000000000E+00   0.00000000000000E+00   0.00000000000000E+00  -7.74306990712008E-04
     -9.91678442061156E-30  -7.74306990712008E-04   8.00337966877243E-16   1.53000000000000E+00   1.53000000000000E+00
      0.00000000000000E+00   0.00000000000000E+00   0.00000000000000E+00   0.00000000000000E+00   0.00000000000000E+00
      9.97917413702298E-16  -4.50000000000000E-01  -4.50000000000000E-01   0.00000000000000E+00   0.00000000000000E+00
     -4.86350798719236E-17   9.91678442061157E-30  -4.86350798719137E-17  -4.28010686677870E-15   1.80000000000000E+00
      1.80000000000000E+00   0.00000000000000E+00   0.00000000000000E+00   7.74306990712056E-04   8.13432919716671E-47
      7.74306990712056E-04   2.48185148619916E-15
      9.00000000000000E-01
      0.00000000000000E+00   0.00000000000000E+00   0.00000000000000E+00   0.00000000000000E+00  -8.41936803773862E-04
     -9.00671175584449E-30  -8.41936803773862E-04   7.79845464735861E-16   1.62000000000000E+00   1.62000000000000E+00
      0.00000000000000E+00   0.00000000000000E+00   0.00000000000000E+00   0.00000000000000E+00   0.00000000000000E+00
      1.18221244750975E-15  -4.50000000000000E-01  -4.50000000000000E-01   0.00000000000000E+00   0.00000000000000E+00
     -5.70749778126630E-17   9.00671175584449E-30  -5.70749778126540E-17  -4.39012574383491E-15   1.80000000000000E+00
      1.80000000000000E+00   0.00000000000000E+00   0.00000000000000E+00   8.41936803773918E-04   1.14645354918896E-46
      8.41936803773918E-04   2.42806783158931E-15
      9.50000000000000E-01
      0.00000000000000E+00   0.00000000000000E+00   0.00000000000000E+00   0.00000000000000E+00  -9.10583829371209E-04
     -7.65365989659870E-30  -9.10583829371209E-04   7.59582551796768E-16   1.71000000000000E+00   1.71000000000000E+00
      0.00000000000000E+00   0.00000000000000E+00   0.00000000000000E+00   0.00000000000000E+00   0.00000000000000E+00
      1.36804391664747E-15  -4.50000000000000E-01  -4.50000000000000E-01   0.00000000000000E+00   0.00000000000000E+00
      2.95035906536499E-18   7.65365989659870E-30   2.95035906537264E-18  -4.50298176647769E-15   1.80000000000000E+00
      1.80000000000000E+00   0.00000000000000E+00   0.00000000000000E+00   9.10583829371205E-04   5.05928472279938E-47
      9.10583829371205E-04   2.37535529803344E-15
      1.00000000000000E+00
      0.00000000000000E+00   0.00000000000000E+00   0.00000000000000E+00   0.00000000000000E+00  -9.80180325146403E-04
     -7.80968992140285E-30  -9.80180325146403E-04   7.39513062855942E-16   1.80000000000000E+00   1.80000000000000E+00
      0.00000000000000E+00   0.00000000000000E+00   0.00000000000000E+00   0.00000000000000E+00   0.00000000000000E+00
      1.55549725068339E-15  -4.50000000000000E-01  -4.50000000000000E-01   0.00000000000000E+00   0.00000000000000E+00
      3.78562411375103E-15   7.80968992140285E-30   3.78562411375104E-15  -4.61892966743264E-15   1.80000000000000E+00
      1.80000000000000E+00   0.00000000000000E+00   0.00000000000000E+00   9.80180325142618E-04   5.94358836916589E-47
      9.80180325142618E-04   2.32391935389331E-15
}
