DF-ISE text

Info {
  version   = 1.0
  type      = xyplot
  datasets  = [
    "time"
    "source OuterVoltage" "source InnerVoltage" "source QuasiFermiPotential" "source DisplacementCurrent" "source eCurrent"
    "source hCurrent" "source TotalCurrent" "source Charge" "gate OuterVoltage" "gate InnerVoltage"
    "gate QuasiFermiPotential" "gate DisplacementCurrent" "gate eCurrent" "gate hCurrent" "gate TotalCurrent"
    "gate Charge" "substrate OuterVoltage" "substrate InnerVoltage" "substrate QuasiFermiPotential" "substrate DisplacementCurrent"
    "substrate eCurrent" "substrate hCurrent" "substrate TotalCurrent" "substrate Charge" "drain OuterVoltage"
    "drain InnerVoltage" "drain QuasiFermiPotential" "drain DisplacementCurrent" "drain eCurrent" "drain hCurrent"
    "drain TotalCurrent" "drain Charge" ]
  functions = [
    Time
    OuterVoltage InnerVoltage QuasiFermiPotential DisplacementCurrent eCurrent
    hCurrent TotalCurrent Charge OuterVoltage InnerVoltage
    QuasiFermiPotential DisplacementCurrent eCurrent hCurrent TotalCurrent
    Charge OuterVoltage InnerVoltage QuasiFermiPotential DisplacementCurrent
    eCurrent hCurrent TotalCurrent Charge OuterVoltage
    InnerVoltage QuasiFermiPotential DisplacementCurrent eCurrent hCurrent
    TotalCurrent Charge ]
}

Data {
      5.00000000000000E-02
      0.00000000000000E+00   0.00000000000000E+00   0.00000000000000E+00   0.00000000000000E+00  -3.23820225626684E-15
     -2.14904930022411E-25  -3.23820225648175E-15   1.23251768732887E-15   9.00000000000000E-02   9.00000000000000E-02
      0.00000000000000E+00   0.00000000000000E+00   0.00000000000000E+00   0.00000000000000E+00   0.00000000000000E+00
      1.31553528573153E-15   0.00000000000000E+00   0.00000000000000E+00   0.00000000000000E+00   0.00000000000000E+00
      2.82293564293193E-15   2.85508280340356E-25   2.82293564321744E-15  -3.84924788787563E-15   5.00000000000000E-02
      5.00000000000000E-02   0.00000000000000E+00   0.00000000000000E+00   4.15266613334910E-16  -7.06033503179454E-26
      4.15266613264306E-16   1.30119491481522E-15
      1.00000000000000E-01
      0.00000000000000E+00   0.00000000000000E+00   0.00000000000000E+00   0.00000000000000E+00   5.31055688031447E-13
     -2.43052858701343E-25   5.31055688031204E-13   1.17256125330385E-15   1.80000000000000E-01   1.80000000000000E-01
      0.00000000000000E+00   0.00000000000000E+00   0.00000000000000E+00   0.00000000000000E+00   0.00000000000000E+00
      1.62978070202233E-15   0.00000000000000E+00   0.00000000000000E+00   0.00000000000000E+00   0.00000000000000E+00
     -8.55947857015495E-13   3.16168839253244E-25  -8.55947857015179E-13  -4.04459599433138E-15   5.00000000000000E-02
      5.00000000000000E-02   0.00000000000000E+00   0.00000000000000E+00   3.24892168984047E-13  -7.31159805519006E-26
      3.24892168983974E-13   1.24225403900521E-15
      1.50000000000000E-01
      0.00000000000000E+00   0.00000000000000E+00   0.00000000000000E+00   0.00000000000000E+00  -8.95580814916993E-14
     -2.16176830052509E-25  -8.95580814919154E-14   1.11110000255099E-15   2.70000000000000E-01   2.70000000000000E-01
      0.00000000000000E+00   0.00000000000000E+00   0.00000000000000E+00   0.00000000000000E+00   0.00000000000000E+00
      1.93601008979760E-15   0.00000000000000E+00   0.00000000000000E+00   0.00000000000000E+00   0.00000000000000E+00
     -1.30951571169524E-13   2.97353849828630E-25  -1.30951571169227E-13  -4.22866455133323E-15   5.00000000000000E-02
      5.00000000000000E-02   0.00000000000000E+00   0.00000000000000E+00   2.20509652661224E-13  -8.11770197761210E-26
      2.20509652661142E-13   1.18155445898465E-15
      2.00000000000000E-01
      0.00000000000000E+00   0.00000000000000E+00   0.00000000000000E+00   0.00000000000000E+00  -1.92165063246995E-12
     -2.03234738604998E-25  -1.92165063247015E-12   1.04942815158817E-15   3.60000000000000E-01   3.60000000000000E-01
      0.00000000000000E+00   0.00000000000000E+00   0.00000000000000E+00   0.00000000000000E+00   0.00000000000000E+00
      2.23614035616566E-15   0.00000000000000E+00   0.00000000000000E+00   0.00000000000000E+00   0.00000000000000E+00
      1.30174359702080E-19   2.68370778453384E-25   1.30174628072858E-19  -4.40534436323987E-15   5.00000000000000E-02
      5.00000000000000E-02   0.00000000000000E+00   0.00000000000000E+00   1.92165050229559E-12  -6.51360398483863E-26
      1.92165050229552E-12   1.11977585548603E-15
      2.50000000000000E-01
      0.00000000000000E+00   0.00000000000000E+00   0.00000000000000E+00   0.00000000000000E+00  -3.26828057321131E-11
     -2.14275208134648E-25  -3.26828057321134E-11   9.90930679294649E-16   4.50000000000000E-01   4.50000000000000E-01
      0.00000000000000E+00   0.00000000000000E+00   0.00000000000000E+00   0.00000000000000E+00   0.00000000000000E+00
      2.53656644312990E-15   0.00000000000000E+00   0.00000000000000E+00   0.00000000000000E+00   0.00000000000000E+00
      1.34172469970110E-17   2.92155690836545E-25   1.34172472891667E-17  -4.58651319748118E-15   5.00000000000000E-02
      5.00000000000000E-02   0.00000000000000E+00   0.00000000000000E+00   3.26827923148661E-11  -7.78804827018969E-26
      3.26827923148660E-11   1.05901607505663E-15
      3.00000000000000E-01
      0.00000000000000E+00   0.00000000000000E+00   0.00000000000000E+00   0.00000000000000E+00  -5.72784278293153E-10
     -2.26563185738797E-25  -5.72784278293153E-10   9.39423805136727E-16   5.40000000000000E-01   5.40000000000000E-01
      0.00000000000000E+00   0.00000000000000E+00   0.00000000000000E+00   0.00000000000000E+00   0.00000000000000E+00
      2.84762184577054E-15   0.00000000000000E+00   0.00000000000000E+00   0.00000000000000E+00   0.00000000000000E+00
     -2.63326421325570E-15   3.05120262983293E-25  -2.63326421295058E-15  -4.79035650192040E-15   5.00000000000000E-02
      5.00000000000000E-02   0.00000000000000E+00   0.00000000000000E+00   5.72786911557366E-10  -7.85570772444958E-26
      5.72786911557366E-10   1.00331085101314E-15
      3.50000000000000E-01
      0.00000000000000E+00   0.00000000000000E+00   0.00000000000000E+00   0.00000000000000E+00  -1.00850386449041E-08
     -2.15119510976564E-25  -1.00850386449041E-08   8.95744240814339E-16   6.30000000000000E-01   6.30000000000000E-01
      0.00000000000000E+00   0.00000000000000E+00   0.00000000000000E+00   0.00000000000000E+00   0.00000000000000E+00
      3.18154836839914E-15   0.00000000000000E+00   0.00000000000000E+00   0.00000000000000E+00   0.00000000000000E+00
     -1.60044656631904E-12   2.84474249947122E-25  -1.60044656631876E-12  -5.03261214684011E-15   5.00000000000000E-02
      5.00000000000000E-02   0.00000000000000E+00   0.00000000000000E+00   1.00866390914704E-08  -6.93547389705578E-26
      1.00866390914704E-08   9.55319537626634E-16
      4.00000000000000E-01
      0.00000000000000E+00   0.00000000000000E+00   0.00000000000000E+00   0.00000000000000E+00  -1.45052610570102E-07
     -2.09764338928816E-25  -1.45052610570102E-07   8.58474207974631E-16   7.20000000000000E-01   7.20000000000000E-01
      0.00000000000000E+00   0.00000000000000E+00   0.00000000000000E+00   0.00000000000000E+00   0.00000000000000E+00
      3.58987008053559E-15   0.00000000000000E+00   0.00000000000000E+00   0.00000000000000E+00   0.00000000000000E+00
      3.40469219073045E-18   2.81163297026635E-25   3.40469247189375E-18  -5.36297575311081E-15   5.00000000000000E-02
      5.00000000000000E-02   0.00000000000000E+00   0.00000000000000E+00   1.45052610566698E-07  -7.13989580978198E-26
      1.45052610566698E-07   9.14631464600578E-16
      4.50000000000000E-01
      0.00000000000000E+00   0.00000000000000E+00   0.00000000000000E+00   0.00000000000000E+00  -8.59443239197115E-07
     -2.07974088678699E-25  -8.59443239197115E-07   8.25435797690632E-16   8.10000000000000E-01   8.10000000000000E-01
      0.00000000000000E+00   0.00000000000000E+00   0.00000000000000E+00   0.00000000000000E+00   0.00000000000000E+00
      4.21977480959947E-15   0.00000000000000E+00   0.00000000000000E+00   0.00000000000000E+00   0.00000000000000E+00
      2.40254048690628E-18   2.66994606887222E-25   2.40254075390089E-18  -5.92461810400561E-15   5.00000000000000E-02
      5.00000000000000E-02   0.00000000000000E+00   0.00000000000000E+00   8.59443239194713E-07  -5.90205182085234E-26
      8.59443239194713E-07   8.79407496715503E-16
      5.00000000000000E-01
      0.00000000000000E+00   0.00000000000000E+00   0.00000000000000E+00   0.00000000000000E+00  -2.13367774458483E-06
     -2.16783788798951E-25  -2.13367774458483E-06   7.94917490615923E-16   9.00000000000000E-01   9.00000000000000E-01
      0.00000000000000E+00   0.00000000000000E+00   0.00000000000000E+00   0.00000000000000E+00   0.00000000000000E+00
      5.06948645819764E-15   0.00000000000000E+00   0.00000000000000E+00   0.00000000000000E+00   0.00000000000000E+00
     -1.65506520272888E-17   2.93938805773142E-25  -1.65506517333500E-17  -6.71197226392215E-15   5.00000000000000E-02
      5.00000000000000E-02   0.00000000000000E+00   0.00000000000000E+00   2.13367774460138E-06  -7.71550169741908E-26
      2.13367774460138E-06   8.47568315108591E-16
      5.50000000000000E-01
      0.00000000000000E+00   0.00000000000000E+00   0.00000000000000E+00   0.00000000000000E+00  -3.60425615695522E-06
     -2.18880231443298E-25  -3.60425615695522E-06   7.65986308880966E-16   9.90000000000000E-01   9.90000000000000E-01
      0.00000000000000E+00   0.00000000000000E+00   0.00000000000000E+00   0.00000000000000E+00   0.00000000000000E+00
      6.02389229615452E-15   0.00000000000000E+00   0.00000000000000E+00   0.00000000000000E+00   0.00000000000000E+00
      5.46984926630625E-18   2.89981101836695E-25   5.46984955628735E-18  -7.60763445209837E-15   5.00000000000000E-02
      5.00000000000000E-02   0.00000000000000E+00   0.00000000000000E+00   3.60425615694975E-06  -7.11008703933965E-26
      3.60425615694975E-06   8.17755847062889E-16
      6.00000000000000E-01
      0.00000000000000E+00   0.00000000000000E+00   0.00000000000000E+00   0.00000000000000E+00  -5.13277150509138E-06
     -2.15951031224523E-25  -5.13277150509138E-06   7.38139400210874E-16   1.08000000000000E+00   1.08000000000000E+00
      0.00000000000000E+00   0.00000000000000E+00   0.00000000000000E+00   0.00000000000000E+00   0.00000000000000E+00
      7.02639969689744E-15   0.00000000000000E+00   0.00000000000000E+00   0.00000000000000E+00   0.00000000000000E+00
      4.70928655038034E-17   2.87485264375425E-25   4.70928657912886E-17  -8.55380636211084E-15   5.00000000000000E-02
      5.00000000000000E-02   0.00000000000000E+00   0.00000000000000E+00   5.13277150504430E-06  -7.15342331509017E-26
      5.13277150504430E-06   7.89267265002525E-16
      6.50000000000000E-01
      0.00000000000000E+00   0.00000000000000E+00   0.00000000000000E+00   0.00000000000000E+00  -6.67548727749769E-06
     -2.14703243236891E-25  -6.67548727749769E-06   7.11077649524438E-16   1.17000000000000E+00   1.17000000000000E+00
      0.00000000000000E+00   0.00000000000000E+00   0.00000000000000E+00   0.00000000000000E+00   0.00000000000000E+00
      8.05499778154139E-15   0.00000000000000E+00   0.00000000000000E+00   0.00000000000000E+00   0.00000000000000E+00
     -5.65510818005386E-18   2.81509408363476E-25  -5.65510789854445E-18  -9.52778501392161E-15   5.00000000000000E-02
      5.00000000000000E-02   0.00000000000000E+00   0.00000000000000E+00   6.67548727750335E-06  -6.68061651265846E-26
      6.67548727750335E-06   7.61709582855781E-16
      7.00000000000000E-01
      0.00000000000000E+00   0.00000000000000E+00   0.00000000000000E+00   0.00000000000000E+00  -8.21585567346390E-06
     -2.01624668356929E-25  -8.21585567346390E-06   6.84608832174106E-16   1.26000000000000E+00   1.26000000000000E+00
      0.00000000000000E+00   0.00000000000000E+00   0.00000000000000E+00   0.00000000000000E+00   0.00000000000000E+00
      9.09970898444017E-15   0.00000000000000E+00   0.00000000000000E+00   0.00000000000000E+00   0.00000000000000E+00
      2.07348363319030E-18   2.80102143935035E-25   2.07348391329245E-18  -1.05191581117651E-14   5.00000000000000E-02
      5.00000000000000E-02   0.00000000000000E+00   0.00000000000000E+00   8.21585567346183E-06  -7.84774755781056E-26
      8.21585567346183E-06   7.34840295150802E-16
      7.50000000000000E-01
      0.00000000000000E+00   0.00000000000000E+00   0.00000000000000E+00   0.00000000000000E+00  -9.74669173943614E-06
     -1.89510224069296E-25  -9.74669173943614E-06   6.58602347588052E-16   1.35000000000000E+00   1.35000000000000E+00
      0.00000000000000E+00   0.00000000000000E+00   0.00000000000000E+00   0.00000000000000E+00   0.00000000000000E+00
      1.01552941747831E-14   0.00000000000000E+00   0.00000000000000E+00   0.00000000000000E+00   0.00000000000000E+00
     -1.29428107582051E-17   2.65291429599554E-25  -1.29428104929137E-17  -1.15223958139286E-14   5.00000000000000E-02
      5.00000000000000E-02   0.00000000000000E+00   0.00000000000000E+00   9.74669173944908E-06  -7.57812055302576E-26
      9.74669173944908E-06   7.08499291557460E-16
      8.00000000000000E-01
      0.00000000000000E+00   0.00000000000000E+00   0.00000000000000E+00   0.00000000000000E+00  -1.12646147237377E-05
     -1.85141465852379E-25  -1.12646147237377E-05   6.32965630367174E-16   1.44000000000000E+00   1.44000000000000E+00
      0.00000000000000E+00   0.00000000000000E+00   0.00000000000000E+00   0.00000000000000E+00   0.00000000000000E+00
      1.12186899680837E-14   0.00000000000000E+00   0.00000000000000E+00   0.00000000000000E+00   0.00000000000000E+00
     -1.29236058524174E-11   2.68047348132808E-25  -1.29236058524171E-11  -1.25342311385824E-14   5.00000000000000E-02
      5.00000000000000E-02   0.00000000000000E+00   0.00000000000000E+00   1.12646276473436E-05  -8.29058822804294E-26
      1.12646276473436E-05   6.82575540131551E-16
      8.50000000000000E-01
      0.00000000000000E+00   0.00000000000000E+00   0.00000000000000E+00   0.00000000000000E+00  -1.27680426802963E-05
     -2.07830927891283E-25  -1.27680426802963E-05   6.07630831617528E-16   1.53000000000000E+00   1.53000000000000E+00
      0.00000000000000E+00   0.00000000000000E+00   0.00000000000000E+00   0.00000000000000E+00   0.00000000000000E+00
      1.22879586403524E-14   0.00000000000000E+00   0.00000000000000E+00   0.00000000000000E+00   0.00000000000000E+00
     -6.49548701964751E-12   2.78516493398536E-25  -6.49548701964723E-12  -1.35525785317827E-14   5.00000000000000E-02
      5.00000000000000E-02   0.00000000000000E+00   0.00000000000000E+00   1.27680491757833E-05  -7.06855655072527E-26
      1.27680491757833E-05   6.56989059812738E-16
      9.00000000000000E-01
      0.00000000000000E+00   0.00000000000000E+00   0.00000000000000E+00   0.00000000000000E+00  -1.42562180309954E-05
     -1.93962403270290E-25  -1.42562180309954E-05   5.82546833048022E-16   1.62000000000000E+00   1.62000000000000E+00
      0.00000000000000E+00   0.00000000000000E+00   0.00000000000000E+00   0.00000000000000E+00   0.00000000000000E+00
      1.33617997442481E-14   0.00000000000000E+00   0.00000000000000E+00   0.00000000000000E+00   0.00000000000000E+00
     -3.44528359361523E-12   2.65683631935416E-25  -3.44528359361497E-12  -1.45760270224639E-14   5.00000000000000E-02
      5.00000000000000E-02   0.00000000000000E+00   0.00000000000000E+00   1.42562214762790E-05  -7.17212286651258E-26
      1.42562214762790E-05   6.31680445167784E-16
      9.50000000000000E-01
      0.00000000000000E+00   0.00000000000000E+00   0.00000000000000E+00   0.00000000000000E+00  -1.57288741862495E-05
     -2.12351692273167E-25  -1.57288741862495E-05   5.57674225356165E-16   1.71000000000000E+00   1.71000000000000E+00
      0.00000000000000E+00   0.00000000000000E+00   0.00000000000000E+00   0.00000000000000E+00   0.00000000000000E+00
      1.44392994954601E-14   0.00000000000000E+00   0.00000000000000E+00   0.00000000000000E+00   0.00000000000000E+00
     -1.91342507130565E-12   2.88978423740861E-25  -1.91342507130537E-12  -1.56035781622724E-14   5.00000000000000E-02
      5.00000000000000E-02   0.00000000000000E+00   0.00000000000000E+00   1.57288760996746E-05  -7.66267314676942E-26
      1.57288760996746E-05   6.06604441456157E-16
      1.00000000000000E+00
      0.00000000000000E+00   0.00000000000000E+00   0.00000000000000E+00   0.00000000000000E+00  -1.71860017331656E-05
     -2.01729271322442E-25  -1.71860017331656E-05   5.32982026369175E-16   1.80000000000000E+00   1.80000000000000E+00
      0.00000000000000E+00   0.00000000000000E+00   0.00000000000000E+00   0.00000000000000E+00   0.00000000000000E+00
      1.55197918846991E-14   0.00000000000000E+00   0.00000000000000E+00   0.00000000000000E+00   0.00000000000000E+00
     -1.10593008615183E-12   2.74048840957009E-25  -1.10593008615156E-12  -1.66344997410067E-14   5.00000000000000E-02
      5.00000000000000E-02   0.00000000000000E+00   0.00000000000000E+00   1.71860028390957E-05  -7.23195696345674E-26
      1.71860028390957E-05   5.81725829938344E-16
}
