DF-ISE text

Info {
  version   = 1.0
  type      = xyplot
  datasets  = [
    "time"
    "source OuterVoltage" "source InnerVoltage" "source QuasiFermiPotential" "source DisplacementCurrent" "source eCurrent"
    "source hCurrent" "source TotalCurrent" "source Charge" "gate OuterVoltage" "gate InnerVoltage"
    "gate QuasiFermiPotential" "gate DisplacementCurrent" "gate eCurrent" "gate hCurrent" "gate TotalCurrent"
    "gate Charge" "substrate OuterVoltage" "substrate InnerVoltage" "substrate QuasiFermiPotential" "substrate DisplacementCurrent"
    "substrate eCurrent" "substrate hCurrent" "substrate TotalCurrent" "substrate Charge" "drain OuterVoltage"
    "drain InnerVoltage" "drain QuasiFermiPotential" "drain DisplacementCurrent" "drain eCurrent" "drain hCurrent"
    "drain TotalCurrent" "drain Charge" ]
  functions = [
    Time
    OuterVoltage InnerVoltage QuasiFermiPotential DisplacementCurrent eCurrent
    hCurrent TotalCurrent Charge OuterVoltage InnerVoltage
    QuasiFermiPotential DisplacementCurrent eCurrent hCurrent TotalCurrent
    Charge OuterVoltage InnerVoltage QuasiFermiPotential DisplacementCurrent
    eCurrent hCurrent TotalCurrent Charge OuterVoltage
    InnerVoltage QuasiFermiPotential DisplacementCurrent eCurrent hCurrent
    TotalCurrent Charge ]
}

Data {
      5.00000000000000E-02
      0.00000000000000E+00   0.00000000000000E+00   0.00000000000000E+00   0.00000000000000E+00  -3.36546927395292E-15
     -5.87036538782990E-43  -3.36546927395292E-15   2.25959581591207E-15   9.00000000000000E-02   9.00000000000000E-02
      0.00000000000000E+00   0.00000000000000E+00   0.00000000000000E+00   0.00000000000000E+00   0.00000000000000E+00
      2.98572269706961E-15  -1.80000000000000E+00  -1.80000000000000E+00   0.00000000000000E+00   0.00000000000000E+00
      3.36502235924065E-15   5.87036538782989E-43   3.36502235924065E-15  -9.19377001999317E-15   1.80000000000000E+00
      1.80000000000000E+00   0.00000000000000E+00   0.00000000000000E+00   4.46914712279558E-19  -2.29449850830584E-59
      4.46914712279558E-19   3.94845150701150E-15
      1.00000000000000E-01
      0.00000000000000E+00   0.00000000000000E+00   0.00000000000000E+00   0.00000000000000E+00  -6.80115785963648E-14
     -3.03029926702858E-43  -6.80115785963648E-14   2.19931003287743E-15   1.80000000000000E-01   1.80000000000000E-01
      0.00000000000000E+00   0.00000000000000E+00   0.00000000000000E+00   0.00000000000000E+00   0.00000000000000E+00
      3.18194690079370E-15  -1.80000000000000E+00  -1.80000000000000E+00   0.00000000000000E+00   0.00000000000000E+00
      6.80108037236643E-14   3.03029926702858E-43   6.80108037236643E-14  -9.28838774226656E-15   1.80000000000000E+00
      1.80000000000000E+00   0.00000000000000E+00   0.00000000000000E+00   7.74872700607098E-19  -1.72555079913509E-59
      7.74872700607098E-19   3.90713080859544E-15
      1.50000000000000E-01
      0.00000000000000E+00   0.00000000000000E+00   0.00000000000000E+00   0.00000000000000E+00   3.07757255033775E-14
     -6.73372637541137E-43   3.07757255033775E-14   2.13806427791366E-15   2.70000000000000E-01   2.70000000000000E-01
      0.00000000000000E+00   0.00000000000000E+00   0.00000000000000E+00   0.00000000000000E+00   0.00000000000000E+00
      3.37838029079294E-15  -1.80000000000000E+00  -1.80000000000000E+00   0.00000000000000E+00   0.00000000000000E+00
     -3.07837624233654E-14   6.73372637541137E-43  -3.07837624233654E-14  -9.38178320399297E-15   1.80000000000000E+00
      1.80000000000000E+00   0.00000000000000E+00   0.00000000000000E+00   8.03691998782041E-18  -8.03781284111575E-60
      8.03691998782041E-18   3.86533863528637E-15
      2.00000000000000E-01
      0.00000000000000E+00   0.00000000000000E+00   0.00000000000000E+00   0.00000000000000E+00  -1.91262044993541E-14
     -5.94231925782984E-43  -1.91262044993541E-14   2.07746833770232E-15   3.60000000000000E-01   3.60000000000000E-01
      0.00000000000000E+00   0.00000000000000E+00   0.00000000000000E+00   0.00000000000000E+00   0.00000000000000E+00
      3.57576950142999E-15  -1.80000000000000E+00  -1.80000000000000E+00   0.00000000000000E+00   0.00000000000000E+00
      1.89557492191169E-14   5.94231925782985E-43   1.89557492191169E-14  -9.47636188270557E-15   1.80000000000000E+00
      1.80000000000000E+00   0.00000000000000E+00   0.00000000000000E+00   1.70455280237185E-16  -8.03888312432738E-61
      1.70455280237185E-16   3.82312404357327E-15
      2.50000000000000E-01
      0.00000000000000E+00   0.00000000000000E+00   0.00000000000000E+00   0.00000000000000E+00  -2.41382517354475E-11
     -1.86985281643335E-43  -2.41382517354475E-11   2.02038855022819E-15   4.50000000000000E-01   4.50000000000000E-01
      0.00000000000000E+00   0.00000000000000E+00   0.00000000000000E+00   0.00000000000000E+00   0.00000000000000E+00
      3.77696864875288E-15  -1.80000000000000E+00  -1.80000000000000E+00   0.00000000000000E+00   0.00000000000000E+00
      2.41344202801990E-11   1.86985281643335E-43   2.41344202801990E-11  -9.57784449634358E-15   1.80000000000000E+00
      1.80000000000000E+00   0.00000000000000E+00   0.00000000000000E+00   3.83145524851459E-15  -2.07630478548743E-60
      3.83145524851459E-15   3.78048729736250E-15
      3.00000000000000E-01
      0.00000000000000E+00   0.00000000000000E+00   0.00000000000000E+00   0.00000000000000E+00  -9.32926917353130E-14
     -4.73899214393510E-43  -9.32926917353130E-14   1.96941545733222E-15   5.40000000000000E-01   5.40000000000000E-01
      0.00000000000000E+00   0.00000000000000E+00   0.00000000000000E+00   0.00000000000000E+00   0.00000000000000E+00
      3.98581478762076E-15  -1.80000000000000E+00  -1.80000000000000E+00   0.00000000000000E+00   0.00000000000000E+00
      6.39544104525562E-15   4.73899214393510E-43   6.39544104525562E-15  -9.69256778077269E-15   1.80000000000000E+00
      1.80000000000000E+00   0.00000000000000E+00   0.00000000000000E+00   8.68972506900574E-14  -6.51214604642041E-62
      8.68972506900574E-14   3.73733753581971E-15
      3.50000000000000E-01
      0.00000000000000E+00   0.00000000000000E+00   0.00000000000000E+00   0.00000000000000E+00  -1.98162102585746E-12
     -7.14270428187764E-43  -1.98162102585746E-12   1.92490640568943E-15   6.30000000000000E-01   6.30000000000000E-01
      0.00000000000000E+00   0.00000000000000E+00   0.00000000000000E+00   0.00000000000000E+00   0.00000000000000E+00
      4.20388748685802E-15  -1.80000000000000E+00  -1.80000000000000E+00   0.00000000000000E+00   0.00000000000000E+00
     -1.68456989539550E-19   7.14270428187764E-43  -1.68456989539550E-19  -9.82227129857872E-15   1.80000000000000E+00
      1.80000000000000E+00   0.00000000000000E+00   0.00000000000000E+00   1.98162119431445E-12  -3.90105025644463E-61
      1.98162119431445E-12   3.69347740603126E-15
      4.00000000000000E-01
      0.00000000000000E+00   0.00000000000000E+00   0.00000000000000E+00   0.00000000000000E+00  -4.53781563592606E-11
     -7.84337274382019E-43  -4.53781563592606E-11   1.88565484269245E-15   7.20000000000000E-01   7.20000000000000E-01
      0.00000000000000E+00   0.00000000000000E+00   0.00000000000000E+00   0.00000000000000E+00   0.00000000000000E+00
      4.43179632888740E-15  -1.80000000000000E+00  -1.80000000000000E+00   0.00000000000000E+00   0.00000000000000E+00
      3.11332734129669E-18   7.84337274382020E-43   3.11332734129669E-18  -9.96615749058814E-15   1.80000000000000E+00
      1.80000000000000E+00   0.00000000000000E+00   0.00000000000000E+00   4.53781532459333E-11   7.99054803591202E-63
      4.53781532459333E-11   3.64870631900831E-15
      4.50000000000000E-01
      0.00000000000000E+00   0.00000000000000E+00   0.00000000000000E+00   0.00000000000000E+00  -1.04071429768094E-09
     -2.67579176923191E-43  -1.04071429768094E-09   1.85046461524107E-15   8.10000000000000E-01   8.10000000000000E-01
      0.00000000000000E+00   0.00000000000000E+00   0.00000000000000E+00   0.00000000000000E+00   0.00000000000000E+00
      4.67224002489133E-15  -1.80000000000000E+00  -1.80000000000000E+00   0.00000000000000E+00   0.00000000000000E+00
     -4.19844251720532E-18   2.67579176923190E-43  -4.19844251720532E-18  -1.01256871270086E-14   1.80000000000000E+00
      1.80000000000000E+00   0.00000000000000E+00   0.00000000000000E+00   1.04071430187939E-09  -9.58519357231658E-61
      1.04071430187939E-09   3.60298248687623E-15
      5.00000000000000E-01
      0.00000000000000E+00   0.00000000000000E+00   0.00000000000000E+00   0.00000000000000E+00  -2.31167335349846E-08
     -4.21020324110304E-43  -2.31167335349846E-08   1.81837790019468E-15   9.00000000000000E-01   9.00000000000000E-01
      0.00000000000000E+00   0.00000000000000E+00   0.00000000000000E+00   0.00000000000000E+00   0.00000000000000E+00
      4.93539179182254E-15  -1.80000000000000E+00  -1.80000000000000E+00   0.00000000000000E+00   0.00000000000000E+00
      6.27685179332847E-19   4.21020324110305E-43   6.27685179332847E-19  -1.03101704602972E-14   1.80000000000000E+00
      1.80000000000000E+00   0.00000000000000E+00   0.00000000000000E+00   2.31167335343569E-08   2.50877632496131E-61
      2.31167335343569E-08   3.55640076827998E-15
      5.50000000000000E-01
      0.00000000000000E+00   0.00000000000000E+00   0.00000000000000E+00   0.00000000000000E+00  -3.49940211903477E-07
     -5.40003718704058E-43  -3.49940211903477E-07   1.78859336099534E-15   9.90000000000000E-01   9.90000000000000E-01
      0.00000000000000E+00   0.00000000000000E+00   0.00000000000000E+00   0.00000000000000E+00   0.00000000000000E+00
      5.28847649027273E-15  -1.80000000000000E+00  -1.80000000000000E+00   0.00000000000000E+00   0.00000000000000E+00
     -4.18648513986155E-18   5.40003718704058E-43  -4.18648513986155E-18  -1.05860807105846E-14   1.80000000000000E+00
      1.80000000000000E+00   0.00000000000000E+00   0.00000000000000E+00   3.49940211907664E-07  -3.74830813502290E-61
      3.49940211907664E-07   3.50901085931653E-15
      6.00000000000000E-01
      0.00000000000000E+00   0.00000000000000E+00   0.00000000000000E+00   0.00000000000000E+00  -2.00403115742354E-06
     -6.27511130580434E-43  -2.00403115742354E-06   1.76036942163893E-15   1.08000000000000E+00   1.08000000000000E+00
      0.00000000000000E+00   0.00000000000000E+00   0.00000000000000E+00   0.00000000000000E+00   0.00000000000000E+00
      5.80760532590756E-15  -1.80000000000000E+00  -1.80000000000000E+00   0.00000000000000E+00   0.00000000000000E+00
     -5.94527983993374E-17   6.27511130580434E-43  -5.94527983993374E-17  -1.10286270999604E-14   1.80000000000000E+00
      1.80000000000000E+00   0.00000000000000E+00   0.00000000000000E+00   2.00403115748299E-06   5.04455883512816E-61
      2.00403115748299E-06   3.46065235241392E-15
      6.50000000000000E-01
      0.00000000000000E+00   0.00000000000000E+00   0.00000000000000E+00   0.00000000000000E+00  -5.76449061240948E-06
     -1.49045329643692E-43  -5.76449061240948E-06   1.73313088197847E-15   1.17000000000000E+00   1.17000000000000E+00
      0.00000000000000E+00   0.00000000000000E+00   0.00000000000000E+00   0.00000000000000E+00   0.00000000000000E+00
      6.42398263444841E-15  -1.80000000000000E+00  -1.80000000000000E+00   0.00000000000000E+00   0.00000000000000E+00
     -4.08265766992267E-18   1.49045329643692E-43  -4.08265766992267E-18  -1.15683092382942E-14   1.80000000000000E+00
      1.80000000000000E+00   0.00000000000000E+00   0.00000000000000E+00   5.76449061241356E-06  -6.46698482455366E-61
      5.76449061241356E-06   3.41119572186730E-15
      7.00000000000000E-01
      0.00000000000000E+00   0.00000000000000E+00   0.00000000000000E+00   0.00000000000000E+00  -1.17938689833622E-05
     -4.26352551301577E-43  -1.17938689833622E-05   1.70658883528033E-15   1.26000000000000E+00   1.26000000000000E+00
      0.00000000000000E+00   0.00000000000000E+00   0.00000000000000E+00   0.00000000000000E+00   0.00000000000000E+00
      7.08634603323459E-15  -1.80000000000000E+00  -1.80000000000000E+00   0.00000000000000E+00   0.00000000000000E+00
     -2.06607811353028E-19   4.26352551301577E-43  -2.06607811353028E-19  -1.21536238507111E-14   1.80000000000000E+00
      1.80000000000000E+00   0.00000000000000E+00   0.00000000000000E+00   1.17938689833624E-05  -6.96005181900738E-61
      1.17938689833624E-05   3.36068898219620E-15
      7.50000000000000E-01
      0.00000000000000E+00   0.00000000000000E+00   0.00000000000000E+00   0.00000000000000E+00  -2.00494599303615E-05
     -7.27406259898602E-43  -2.00494599303615E-05   1.68058039996070E-15   1.35000000000000E+00   1.35000000000000E+00
      0.00000000000000E+00   0.00000000000000E+00   0.00000000000000E+00   0.00000000000000E+00   0.00000000000000E+00
      7.77572435303167E-15  -1.80000000000000E+00  -1.80000000000000E+00   0.00000000000000E+00   0.00000000000000E+00
      4.66718159074636E-18   7.27406259898602E-43   4.66718159074636E-18  -1.27655548632421E-14   1.80000000000000E+00
      1.80000000000000E+00   0.00000000000000E+00   0.00000000000000E+00   2.00494599303568E-05   3.44798223043390E-61
      2.00494599303568E-05   3.30925011024971E-15
      8.00000000000000E-01
      0.00000000000000E+00   0.00000000000000E+00   0.00000000000000E+00   0.00000000000000E+00  -3.04333472700569E-05
     -7.85552009768819E-43  -3.04333472700569E-05   1.65499937145921E-15   1.44000000000000E+00   1.44000000000000E+00
      0.00000000000000E+00   0.00000000000000E+00   0.00000000000000E+00   0.00000000000000E+00   0.00000000000000E+00
      8.48408456745243E-15  -1.80000000000000E+00  -1.80000000000000E+00   0.00000000000000E+00   0.00000000000000E+00
     -1.48368893417978E-18   7.85552009768819E-43  -1.48368893417978E-18  -1.33960279462539E-14   1.80000000000000E+00
      1.80000000000000E+00   0.00000000000000E+00   0.00000000000000E+00   3.04333472700584E-05  -7.73147679502766E-62
      3.04333472700584E-05   3.25694400734226E-15
      8.50000000000000E-01
      0.00000000000000E+00   0.00000000000000E+00   0.00000000000000E+00   0.00000000000000E+00  -4.28323054641302E-05
     -2.71673594228812E-43  -4.28323054641302E-05   1.62977076003809E-15   1.53000000000000E+00   1.53000000000000E+00
      0.00000000000000E+00   0.00000000000000E+00   0.00000000000000E+00   0.00000000000000E+00   0.00000000000000E+00
      9.20748544429213E-15  -1.80000000000000E+00  -1.80000000000000E+00   0.00000000000000E+00   0.00000000000000E+00
     -5.41428817723147E-18   2.71673594228812E-43  -5.41428817723147E-18  -1.40409969850092E-14   1.80000000000000E+00
      1.80000000000000E+00   0.00000000000000E+00   0.00000000000000E+00   4.28323054641357E-05  -9.78445495530591E-61
      4.28323054641357E-05   3.20374078067904E-15
      9.00000000000000E-01
      0.00000000000000E+00   0.00000000000000E+00   0.00000000000000E+00   0.00000000000000E+00  -5.71304745966705E-05
     -3.23657955151488E-43  -5.71304745966705E-05   1.60483895416070E-15   1.62000000000000E+00   1.62000000000000E+00
      0.00000000000000E+00   0.00000000000000E+00   0.00000000000000E+00   0.00000000000000E+00   0.00000000000000E+00
      9.94376306372429E-15  -1.80000000000000E+00  -1.80000000000000E+00   0.00000000000000E+00   0.00000000000000E+00
      2.02858651789734E-17   3.23657955151488E-43   2.02858651789734E-17  -1.46981887175898E-14   1.80000000000000E+00
      1.80000000000000E+00   0.00000000000000E+00   0.00000000000000E+00   5.71304745966502E-05   5.73818812933663E-62
      5.71304745966502E-05   3.14958669970480E-15
      9.50000000000000E-01
      0.00000000000000E+00   0.00000000000000E+00   0.00000000000000E+00   0.00000000000000E+00  -7.32139206444247E-05
     -6.41080209528448E-43  -7.32139206444247E-05   1.58016126663282E-15   1.71000000000000E+00   1.71000000000000E+00
      0.00000000000000E+00   0.00000000000000E+00   0.00000000000000E+00   0.00000000000000E+00   0.00000000000000E+00
      1.06917366083596E-14  -1.80000000000000E+00  -1.80000000000000E+00   0.00000000000000E+00   0.00000000000000E+00
      1.39461665658875E-17   6.41080209528448E-43   1.39461665658875E-17  -1.53663107548587E-14   1.80000000000000E+00
      1.80000000000000E+00   0.00000000000000E+00   0.00000000000000E+00   7.32139206444106E-05   1.23842815224745E-61
      7.32139206444106E-05   3.09441287986630E-15
      1.00000000000000E+00
      0.00000000000000E+00   0.00000000000000E+00   0.00000000000000E+00   0.00000000000000E+00  -9.09728574542314E-05
     -2.38275278245657E-43  -9.09728574542314E-05   1.55570407073678E-15   1.80000000000000E+00   1.80000000000000E+00
      0.00000000000000E+00   0.00000000000000E+00   0.00000000000000E+00   0.00000000000000E+00   0.00000000000000E+00
      1.14507666286339E-14  -1.80000000000000E+00  -1.80000000000000E+00   0.00000000000000E+00   0.00000000000000E+00
      1.76502613204339E-15   2.38275278245657E-43   1.76502613204339E-15  -1.60444754672805E-14   1.80000000000000E+00
      1.80000000000000E+00   0.00000000000000E+00   0.00000000000000E+00   9.09728574524663E-05  -8.21528026287173E-61
      9.09728574524663E-05   3.03800476790977E-15
}
