DF-ISE text

Info {
  version   = 1.0
  type      = xyplot
  datasets  = [
    "time"
    "source OuterVoltage" "source InnerVoltage" "source QuasiFermiPotential" "source DisplacementCurrent" "source eCurrent"
    "source hCurrent" "source TotalCurrent" "source Charge" "gate OuterVoltage" "gate InnerVoltage"
    "gate QuasiFermiPotential" "gate DisplacementCurrent" "gate eCurrent" "gate hCurrent" "gate TotalCurrent"
    "gate Charge" "substrate OuterVoltage" "substrate InnerVoltage" "substrate QuasiFermiPotential" "substrate DisplacementCurrent"
    "substrate eCurrent" "substrate hCurrent" "substrate TotalCurrent" "substrate Charge" "drain OuterVoltage"
    "drain InnerVoltage" "drain QuasiFermiPotential" "drain DisplacementCurrent" "drain eCurrent" "drain hCurrent"
    "drain TotalCurrent" "drain Charge" ]
  functions = [
    Time
    OuterVoltage InnerVoltage QuasiFermiPotential DisplacementCurrent eCurrent
    hCurrent TotalCurrent Charge OuterVoltage InnerVoltage
    QuasiFermiPotential DisplacementCurrent eCurrent hCurrent TotalCurrent
    Charge OuterVoltage InnerVoltage QuasiFermiPotential DisplacementCurrent
    eCurrent hCurrent TotalCurrent Charge OuterVoltage
    InnerVoltage QuasiFermiPotential DisplacementCurrent eCurrent hCurrent
    TotalCurrent Charge ]
}

Data {
      5.00000000000000E-02
      0.00000000000000E+00   0.00000000000000E+00   0.00000000000000E+00   0.00000000000000E+00  -8.93964499790072E-08
     -2.65865862035287E-25  -8.93964499790072E-08   1.16798778671109E-15   9.00000000000000E-02   9.00000000000000E-02
      0.00000000000000E+00   0.00000000000000E+00   0.00000000000000E+00   0.00000000000000E+00   0.00000000000000E+00
     -5.37957502947862E-16   0.00000000000000E+00   0.00000000000000E+00   0.00000000000000E+00   0.00000000000000E+00
      4.57658948066542E-14   3.30932690738812E-25   4.57658948069851E-14  -1.86994011720708E-15   5.00000000000000E-02
      5.00000000000000E-02   0.00000000000000E+00   0.00000000000000E+00   8.93964042131123E-08  -6.50668287035248E-26
      8.93964042131123E-08   1.23990983344385E-15
      1.00000000000000E-01
      0.00000000000000E+00   0.00000000000000E+00   0.00000000000000E+00   0.00000000000000E+00  -2.83284971420861E-07
     -3.02069980331294E-25  -2.83284971420861E-07   1.10756174913978E-15   1.80000000000000E-01   1.80000000000000E-01
      0.00000000000000E+00   0.00000000000000E+00   0.00000000000000E+00   0.00000000000000E+00   0.00000000000000E+00
     -4.17320077829606E-16   0.00000000000000E+00   0.00000000000000E+00   0.00000000000000E+00   0.00000000000000E+00
      1.85220095764802E-14   3.65053834507306E-25   1.85220095768453E-14  -1.87105889427357E-15   5.00000000000000E-02
      5.00000000000000E-02   0.00000000000000E+00   0.00000000000000E+00   2.83284952898852E-07  -6.29838541760121E-26
      2.83284952898852E-07   1.18081722296339E-15
      1.50000000000000E-01
      0.00000000000000E+00   0.00000000000000E+00   0.00000000000000E+00   0.00000000000000E+00  -9.18175066749982E-07
     -2.92675903594230E-25  -9.18175066749982E-07   1.04590611130592E-15   2.70000000000000E-01   2.70000000000000E-01
      0.00000000000000E+00   0.00000000000000E+00   0.00000000000000E+00   0.00000000000000E+00   0.00000000000000E+00
     -2.92392344946337E-16   0.00000000000000E+00   0.00000000000000E+00   0.00000000000000E+00   0.00000000000000E+00
     -1.70050803887817E-19   3.64599605926000E-25  -1.70050439288211E-19  -1.87373471494737E-15   5.00000000000000E-02
      5.00000000000000E-02   0.00000000000000E+00   0.00000000000000E+00   9.18175066750152E-07  -7.19237023317692E-26
      9.18175066750152E-07   1.12022094858779E-15
      2.00000000000000E-01
      0.00000000000000E+00   0.00000000000000E+00   0.00000000000000E+00   0.00000000000000E+00  -2.91092733097298E-06
     -2.68354318647119E-25  -2.91092733097298E-06   9.84769606954611E-16   3.60000000000000E-01   3.60000000000000E-01
      0.00000000000000E+00   0.00000000000000E+00   0.00000000000000E+00   0.00000000000000E+00   0.00000000000000E+00
     -1.60828213555849E-16   0.00000000000000E+00   0.00000000000000E+00   0.00000000000000E+00   0.00000000000000E+00
      1.12419300589668E-18   3.33948640234549E-25   1.12419333984532E-18  -1.88266559609001E-15   5.00000000000000E-02
      5.00000000000000E-02   0.00000000000000E+00   0.00000000000000E+00   2.91092733097186E-06  -6.55943215874302E-26
      2.91092733097186E-06   1.05872420269125E-15
      2.50000000000000E-01
      0.00000000000000E+00   0.00000000000000E+00   0.00000000000000E+00   0.00000000000000E+00  -8.10577496173515E-06
     -2.91017501081695E-25  -8.10577496173515E-06   9.28645847196007E-16   4.50000000000000E-01   4.50000000000000E-01
      0.00000000000000E+00   0.00000000000000E+00   0.00000000000000E+00   0.00000000000000E+00   0.00000000000000E+00
     -1.66844462779764E-17   0.00000000000000E+00   0.00000000000000E+00   0.00000000000000E+00   0.00000000000000E+00
      1.16502795316283E-17   3.54765242067225E-25   1.16502798863935E-17  -1.91068207255958E-15   5.00000000000000E-02
      5.00000000000000E-02   0.00000000000000E+00   0.00000000000000E+00   8.10577496172351E-06  -6.37477409855293E-26
      8.10577496172351E-06   9.98720671641554E-16
      3.00000000000000E-01
      0.00000000000000E+00   0.00000000000000E+00   0.00000000000000E+00   0.00000000000000E+00  -1.73307108022616E-05
     -2.70086179345525E-25  -1.73307108022616E-05   8.82010098706375E-16   5.40000000000000E-01   5.40000000000000E-01
      0.00000000000000E+00   0.00000000000000E+00   0.00000000000000E+00   0.00000000000000E+00   0.00000000000000E+00
      1.47692569209912E-16   0.00000000000000E+00   0.00000000000000E+00   0.00000000000000E+00   0.00000000000000E+00
     -1.63137545127587E-15   3.24626131092199E-25  -1.63137545095124E-15  -1.97520954834420E-15   5.00000000000000E-02
      5.00000000000000E-02   0.00000000000000E+00   0.00000000000000E+00   1.73307108038930E-05  -5.45399517466741E-26
      1.73307108038930E-05   9.45506880427906E-16
      3.50000000000000E-01
      0.00000000000000E+00   0.00000000000000E+00   0.00000000000000E+00   0.00000000000000E+00  -2.81529941072752E-05
     -3.21247527121129E-25  -2.81529941072752E-05   8.44182132140277E-16   6.30000000000000E-01   6.30000000000000E-01
      0.00000000000000E+00   0.00000000000000E+00   0.00000000000000E+00   0.00000000000000E+00   0.00000000000000E+00
      3.32564898028044E-16   0.00000000000000E+00   0.00000000000000E+00   0.00000000000000E+00   0.00000000000000E+00
     -1.04675684970713E-16   3.87575997609045E-25  -1.04675684583137E-16  -2.07893847219537E-15   5.00000000000000E-02
      5.00000000000000E-02   0.00000000000000E+00   0.00000000000000E+00   2.81529941073798E-05  -6.63284704879159E-26
      2.81529941073798E-05   9.02191442027048E-16
      4.00000000000000E-01
      0.00000000000000E+00   0.00000000000000E+00   0.00000000000000E+00   0.00000000000000E+00  -3.82519997309576E-05
     -2.95017792077791E-25  -3.82519997309576E-05   8.12003796982699E-16   7.20000000000000E-01   7.20000000000000E-01
      0.00000000000000E+00   0.00000000000000E+00   0.00000000000000E+00   0.00000000000000E+00   0.00000000000000E+00
      5.31053288430603E-16   0.00000000000000E+00   0.00000000000000E+00   0.00000000000000E+00   0.00000000000000E+00
     -5.75436616692208E-18   3.61261144810044E-25  -5.75436580566094E-18  -2.20951507817704E-15   5.00000000000000E-02
      5.00000000000000E-02   0.00000000000000E+00   0.00000000000000E+00   3.82519997309633E-05  -6.62433527322535E-26
      3.82519997309633E-05   8.66457992763739E-16
      4.50000000000000E-01
      0.00000000000000E+00   0.00000000000000E+00   0.00000000000000E+00   0.00000000000000E+00  -4.72275409174537E-05
     -2.84874288392109E-25  -4.72275409174537E-05   7.83223368111207E-16   8.10000000000000E-01   8.10000000000000E-01
      0.00000000000000E+00   0.00000000000000E+00   0.00000000000000E+00   0.00000000000000E+00   0.00000000000000E+00
      7.37454252607233E-16   0.00000000000000E+00   0.00000000000000E+00   0.00000000000000E+00   0.00000000000000E+00
     -1.33692143900073E-13   3.54919755922935E-25  -1.33692143899718E-13  -2.35601606899343E-15   5.00000000000000E-02
      5.00000000000000E-02   0.00000000000000E+00   0.00000000000000E+00   4.72275410511458E-05  -7.00454675308259E-26
      4.72275410511458E-05   8.35338448274987E-16
      5.00000000000000E-01
      0.00000000000000E+00   0.00000000000000E+00   0.00000000000000E+00   0.00000000000000E+00  -5.52419406462919E-05
     -2.87330219452580E-25  -5.52419406462919E-05   7.56587737131436E-16   9.00000000000000E-01   9.00000000000000E-01
      0.00000000000000E+00   0.00000000000000E+00   0.00000000000000E+00   0.00000000000000E+00   0.00000000000000E+00
      9.48634818489459E-16   0.00000000000000E+00   0.00000000000000E+00   0.00000000000000E+00   0.00000000000000E+00
     -3.24439017509456E-15   3.54428476495261E-25  -3.24439017474013E-15  -2.51227011471242E-15   5.00000000000000E-02
      5.00000000000000E-02   0.00000000000000E+00   0.00000000000000E+00   5.52419406495362E-05  -6.70982570426803E-26
      5.52419406495362E-05   8.07047559091521E-16
      5.50000000000000E-01
      0.00000000000000E+00   0.00000000000000E+00   0.00000000000000E+00   0.00000000000000E+00  -6.24849674896247E-05
     -2.68099046934925E-25  -6.24849674896247E-05   7.31390228201461E-16   9.90000000000000E-01   9.90000000000000E-01
      0.00000000000000E+00   0.00000000000000E+00   0.00000000000000E+00   0.00000000000000E+00   0.00000000000000E+00
      1.16292292243004E-15   0.00000000000000E+00   0.00000000000000E+00   0.00000000000000E+00   0.00000000000000E+00
     -1.61405615151819E-16   3.38349775778669E-25  -1.61405614813469E-16  -2.67491127161010E-15   5.00000000000000E-02
      5.00000000000000E-02   0.00000000000000E+00   0.00000000000000E+00   6.24849674897861E-05  -7.02507288437439E-26
      6.24849674897861E-05   7.80598120978598E-16
      6.00000000000000E-01
      0.00000000000000E+00   0.00000000000000E+00   0.00000000000000E+00   0.00000000000000E+00  -6.91055120741359E-05
     -2.69723900131155E-25  -6.91055120741359E-05   7.07208825809096E-16   1.08000000000000E+00   1.08000000000000E+00
      0.00000000000000E+00   0.00000000000000E+00   0.00000000000000E+00   0.00000000000000E+00   0.00000000000000E+00
      1.37936228080804E-15   0.00000000000000E+00   0.00000000000000E+00   0.00000000000000E+00   0.00000000000000E+00
     -7.50283401563484E-18   3.26713444664686E-25  -7.50283368892139E-18  -2.84199116970691E-15   5.00000000000000E-02
      5.00000000000000E-02   0.00000000000000E+00   0.00000000000000E+00   6.91055120741434E-05  -5.69895445335318E-26
      6.91055120741434E-05   7.55420063089781E-16
      6.50000000000000E-01
      0.00000000000000E+00   0.00000000000000E+00   0.00000000000000E+00   0.00000000000000E+00  -7.52135474667445E-05
     -2.79393854080973E-25  -7.52135474667445E-05   6.83776596981543E-16   1.17000000000000E+00   1.17000000000000E+00
      0.00000000000000E+00   0.00000000000000E+00   0.00000000000000E+00   0.00000000000000E+00   0.00000000000000E+00
      1.59736706792756E-15   0.00000000000000E+00   0.00000000000000E+00   0.00000000000000E+00   0.00000000000000E+00
     -2.04265600697834E-10   3.44098988897112E-25  -2.04265600697834E-10  -3.01230699404204E-15   5.00000000000000E-02
      5.00000000000000E-02   0.00000000000000E+00   0.00000000000000E+00   7.52137517323452E-05  -6.47051348161387E-26
      7.52137517323452E-05   7.31163329132940E-16
      7.00000000000000E-01
      0.00000000000000E+00   0.00000000000000E+00   0.00000000000000E+00   0.00000000000000E+00  -8.08916083738652E-05
     -2.56456989698656E-25  -8.08916083738652E-05   6.60916091998028E-16   1.26000000000000E+00   1.26000000000000E+00
      0.00000000000000E+00   0.00000000000000E+00   0.00000000000000E+00   0.00000000000000E+00   0.00000000000000E+00
      1.81655652487499E-15   0.00000000000000E+00   0.00000000000000E+00   0.00000000000000E+00   0.00000000000000E+00
     -7.93325479679835E-11   3.24366417163468E-25  -7.93325479679832E-11  -3.18507329975862E-15   5.00000000000000E-02
      5.00000000000000E-02   0.00000000000000E+00   0.00000000000000E+00   8.08916877064132E-05  -6.79094274648115E-26
      8.08916877064132E-05   7.07600682885597E-16
      7.50000000000000E-01
      0.00000000000000E+00   0.00000000000000E+00   0.00000000000000E+00   0.00000000000000E+00  -8.62015752318530E-05
     -2.65584775110729E-25  -8.62015752318530E-05   6.38504279735614E-16   1.35000000000000E+00   1.35000000000000E+00
      0.00000000000000E+00   0.00000000000000E+00   0.00000000000000E+00   0.00000000000000E+00   0.00000000000000E+00
      2.03667114744661E-15   0.00000000000000E+00   0.00000000000000E+00   0.00000000000000E+00   0.00000000000000E+00
     -3.39759202569469E-11   3.33115799332692E-25  -3.39759202569466E-11  -3.35975296149658E-15   5.00000000000000E-02
      5.00000000000000E-02   0.00000000000000E+00   0.00000000000000E+00   8.62016092077734E-05  -6.75310242219625E-26
      8.62016092077734E-05   6.84577534314348E-16
      8.00000000000000E-01
      0.00000000000000E+00   0.00000000000000E+00   0.00000000000000E+00   0.00000000000000E+00  -9.11923023653338E-05
     -2.79314709083590E-25  -9.11923023653338E-05   6.16452781166622E-16   1.44000000000000E+00   1.44000000000000E+00
      0.00000000000000E+00   0.00000000000000E+00   0.00000000000000E+00   0.00000000000000E+00   0.00000000000000E+00
      2.25752710258078E-15   0.00000000000000E+00   0.00000000000000E+00   0.00000000000000E+00   0.00000000000000E+00
     -1.57541226362509E-11   3.47720957283818E-25  -1.57541226362506E-11  -3.53596443914885E-15   5.00000000000000E-02
      5.00000000000000E-02   0.00000000000000E+00   0.00000000000000E+00   9.11923181194566E-05  -6.84062482002279E-26
      9.11923181194566E-05   6.61984555401440E-16
      8.50000000000000E-01
      0.00000000000000E+00   0.00000000000000E+00   0.00000000000000E+00   0.00000000000000E+00  -9.59028372632319E-05
     -2.58036024527600E-25  -9.59028372632319E-05   5.94696287606243E-16   1.53000000000000E+00   1.53000000000000E+00
      0.00000000000000E+00   0.00000000000000E+00   0.00000000000000E+00   0.00000000000000E+00   0.00000000000000E+00
      2.47898930854183E-15   0.00000000000000E+00   0.00000000000000E+00   0.00000000000000E+00   0.00000000000000E+00
     -7.80492498401176E-12   3.25412141301682E-25  -7.80492498401143E-12  -3.71342753276782E-15   5.00000000000000E-02
      5.00000000000000E-02   0.00000000000000E+00   0.00000000000000E+00   9.59028450681568E-05  -6.73761167740825E-26
      9.59028450681568E-05   6.39741936619753E-16
      9.00000000000000E-01
      0.00000000000000E+00   0.00000000000000E+00   0.00000000000000E+00   0.00000000000000E+00  -1.00364719823765E-04
     -2.90544215196559E-25  -1.00364719823765E-04   5.73185299143268E-16   1.62000000000000E+00   1.62000000000000E+00
      0.00000000000000E+00   0.00000000000000E+00   0.00000000000000E+00   0.00000000000000E+00   0.00000000000000E+00
      2.70095612929719E-15   0.00000000000000E+00   0.00000000000000E+00   0.00000000000000E+00   0.00000000000000E+00
     -4.08910242432044E-12   3.44827002602625E-25  -4.08910242432009E-12  -3.89193117123924E-15   5.00000000000000E-02
      5.00000000000000E-02   0.00000000000000E+00   0.00000000000000E+00   1.00364723912868E-04  -5.42827874060652E-26
      1.00364723912868E-04   6.17789742798787E-16
      9.50000000000000E-01
      0.00000000000000E+00   0.00000000000000E+00   0.00000000000000E+00   0.00000000000000E+00  -1.04603996592439E-04
     -2.66106247477422E-25  -1.04603996592439E-04   5.51881491276995E-16   1.71000000000000E+00   1.71000000000000E+00
      0.00000000000000E+00   0.00000000000000E+00   0.00000000000000E+00   0.00000000000000E+00   0.00000000000000E+00
      2.92334921323429E-15   0.00000000000000E+00   0.00000000000000E+00   0.00000000000000E+00   0.00000000000000E+00
     -2.24731582868951E-12   3.27524874159125E-25  -2.24731582868918E-12  -4.07131263551278E-15   5.00000000000000E-02
      5.00000000000000E-02   0.00000000000000E+00   0.00000000000000E+00   1.04603998839755E-04  -6.14186266817028E-26
      1.04603998839755E-04   5.96081931001497E-16
      1.00000000000000E+00
      0.00000000000000E+00   0.00000000000000E+00   0.00000000000000E+00   0.00000000000000E+00  -1.08642495668903E-04
     -2.60838573286933E-25  -1.08642495668903E-04   5.30754641859608E-16   1.80000000000000E+00   1.80000000000000E+00
      0.00000000000000E+00   0.00000000000000E+00   0.00000000000000E+00   0.00000000000000E+00   0.00000000000000E+00
      3.14610695222644E-15   0.00000000000000E+00   0.00000000000000E+00   0.00000000000000E+00   0.00000000000000E+00
     -1.28727269947698E-12   3.19608326055227E-25  -1.28727269947666E-12  -4.25144401472211E-15   5.00000000000000E-02
      5.00000000000000E-02   0.00000000000000E+00   0.00000000000000E+00   1.08642496956175E-04  -5.87697527682942E-26
      1.08642496956175E-04   5.74582420636072E-16
}
