DF-ISE text

Info {
  version   = 1.0
  type      = xyplot
  datasets  = [
    "time"
    "source OuterVoltage" "source InnerVoltage" "source QuasiFermiPotential" "source DisplacementCurrent" "source eCurrent"
    "source hCurrent" "source TotalCurrent" "source Charge" "gate OuterVoltage" "gate InnerVoltage"
    "gate QuasiFermiPotential" "gate DisplacementCurrent" "gate eCurrent" "gate hCurrent" "gate TotalCurrent"
    "gate Charge" "substrate OuterVoltage" "substrate InnerVoltage" "substrate QuasiFermiPotential" "substrate DisplacementCurrent"
    "substrate eCurrent" "substrate hCurrent" "substrate TotalCurrent" "substrate Charge" "drain OuterVoltage"
    "drain InnerVoltage" "drain QuasiFermiPotential" "drain DisplacementCurrent" "drain eCurrent" "drain hCurrent"
    "drain TotalCurrent" "drain Charge" ]
  functions = [
    Time
    OuterVoltage InnerVoltage QuasiFermiPotential DisplacementCurrent eCurrent
    hCurrent TotalCurrent Charge OuterVoltage InnerVoltage
    QuasiFermiPotential DisplacementCurrent eCurrent hCurrent TotalCurrent
    Charge OuterVoltage InnerVoltage QuasiFermiPotential DisplacementCurrent
    eCurrent hCurrent TotalCurrent Charge OuterVoltage
    InnerVoltage QuasiFermiPotential DisplacementCurrent eCurrent hCurrent
    TotalCurrent Charge ]
}

Data {
      5.00000000000000E-02
      0.00000000000000E+00   0.00000000000000E+00   0.00000000000000E+00   0.00000000000000E+00  -1.93309576353755E-14
      1.00287349306083E-31  -1.93309576353755E-14   1.52036473342615E-15   9.00000000000000E-02   9.00000000000000E-02
      0.00000000000000E+00   0.00000000000000E+00   0.00000000000000E+00   0.00000000000000E+00   0.00000000000000E+00
     -3.68208330482509E-16  -4.50000000000000E-01  -4.50000000000000E-01   0.00000000000000E+00   0.00000000000000E+00
      1.92676503987840E-14  -1.00287344295545E-31   1.92676503987840E-14  -4.54957202434058E-15   1.80000000000000E+00
      1.80000000000000E+00   0.00000000000000E+00   0.00000000000000E+00   6.33072365914715E-17  -5.01054225270044E-39
      6.33072365914715E-17   3.39741562139693E-15
      1.00000000000000E-01
      0.00000000000000E+00   0.00000000000000E+00   0.00000000000000E+00   0.00000000000000E+00   5.12498988735114E-15
      1.34516171026500E-30   5.12498988735114E-15   1.46265202692974E-15   1.80000000000000E-01   1.80000000000000E-01
      0.00000000000000E+00   0.00000000000000E+00   0.00000000000000E+00   0.00000000000000E+00   0.00000000000000E+00
     -2.17214098418927E-16  -4.50000000000000E-01  -4.50000000000000E-01   0.00000000000000E+00   0.00000000000000E+00
     -6.27614408341197E-15  -1.34516170940147E-30  -6.27614408341197E-15  -4.60390541441608E-15   1.80000000000000E+00
      1.80000000000000E+00   0.00000000000000E+00   0.00000000000000E+00   1.15115419606083E-15  -8.63533120622670E-40
      1.15115419606083E-15   3.35846748590527E-15
      1.50000000000000E-01
      0.00000000000000E+00   0.00000000000000E+00   0.00000000000000E+00   0.00000000000000E+00  -1.84444434584736E-14
      2.78513854702408E-30  -1.84444434584736E-14   1.40415720364280E-15   2.70000000000000E-01   2.70000000000000E-01
      0.00000000000000E+00   0.00000000000000E+00   0.00000000000000E+00   0.00000000000000E+00   0.00000000000000E+00
     -6.63341647890766E-17  -4.50000000000000E-01  -4.50000000000000E-01   0.00000000000000E+00   0.00000000000000E+00
     -3.05666885497380E-15  -2.78513854701150E-30  -3.05666885497380E-15  -4.65698629915299E-15   1.80000000000000E+00
      1.80000000000000E+00   0.00000000000000E+00   0.00000000000000E+00   2.15011123134474E-14  -1.25835971937902E-41
      2.15011123134474E-14   3.31916326029927E-15
      2.00000000000000E-01
      0.00000000000000E+00   0.00000000000000E+00   0.00000000000000E+00   0.00000000000000E+00  -4.10992434467005E-13
      1.99303354400237E-30  -4.10992434467005E-13   1.34628719665238E-15   3.60000000000000E-01   3.60000000000000E-01
      0.00000000000000E+00   0.00000000000000E+00   0.00000000000000E+00   0.00000000000000E+00   0.00000000000000E+00
      8.59762555856122E-17  -4.50000000000000E-01  -4.50000000000000E-01   0.00000000000000E+00   0.00000000000000E+00
     -5.62826439144671E-19  -1.99303354399934E-30  -5.62826439146664E-19  -4.71160744437552E-15   1.80000000000000E+00
      1.80000000000000E+00   0.00000000000000E+00   0.00000000000000E+00   4.10992997293444E-13  -3.03713561825470E-42
      4.10992997293444E-13   3.27934399213752E-15
      2.50000000000000E-01
      0.00000000000000E+00   0.00000000000000E+00   0.00000000000000E+00   0.00000000000000E+00  -8.02692802196058E-12
      3.55728400088731E-30  -8.02692802196058E-12   1.29265118102068E-15   4.50000000000000E-01   4.50000000000000E-01
      0.00000000000000E+00   0.00000000000000E+00   0.00000000000000E+00   0.00000000000000E+00   0.00000000000000E+00
      2.43159296980900E-16  -4.50000000000000E-01  -4.50000000000000E-01   0.00000000000000E+00   0.00000000000000E+00
      2.82413522423229E-18  -3.55728400088707E-30   2.82413522422873E-18  -4.77464471362791E-15   1.80000000000000E+00
      1.80000000000000E+00   0.00000000000000E+00   0.00000000000000E+00   8.02692519782536E-12  -2.28336224768571E-43
      8.02692519782536E-12   3.23883423562634E-15
      3.00000000000000E-01
      0.00000000000000E+00   0.00000000000000E+00   0.00000000000000E+00   0.00000000000000E+00  -1.59465344315125E-10
      4.51199083566123E-30  -1.59465344315125E-10   1.24687361599815E-15   5.40000000000000E-01   5.40000000000000E-01
      0.00000000000000E+00   0.00000000000000E+00   0.00000000000000E+00   0.00000000000000E+00   0.00000000000000E+00
      4.09270465168928E-16  -4.50000000000000E-01  -4.50000000000000E-01   0.00000000000000E+00   0.00000000000000E+00
     -1.94669726148694E-15  -4.51199083566123E-30  -1.94669726148695E-15  -4.85368916255081E-15   1.80000000000000E+00
      1.80000000000000E+00   0.00000000000000E+00   0.00000000000000E+00   1.59467291012386E-10  -5.26770803994592E-45
      1.59467291012386E-10   3.19754508138374E-15
      3.50000000000000E-01
      0.00000000000000E+00   0.00000000000000E+00   0.00000000000000E+00   0.00000000000000E+00  -3.19556941868649E-09
      3.89985638438554E-30  -3.19556941868649E-09   1.20912457237319E-15   6.30000000000000E-01   6.30000000000000E-01
      0.00000000000000E+00   0.00000000000000E+00   0.00000000000000E+00   0.00000000000000E+00   0.00000000000000E+00
      5.86990398741700E-16  -4.50000000000000E-01  -4.50000000000000E-01   0.00000000000000E+00   0.00000000000000E+00
     -2.95345501651831E-12  -3.89985638438553E-30  -2.95345501651831E-12  -4.95158472071989E-15   1.80000000000000E+00
      1.80000000000000E+00   0.00000000000000E+00   0.00000000000000E+00   3.19852287370300E-09  -5.88412730264391E-47
      3.19852287370300E-09   3.15546974960500E-15
      4.00000000000000E-01
      0.00000000000000E+00   0.00000000000000E+00   0.00000000000000E+00   0.00000000000000E+00  -6.23881725105301E-08
      5.58223483612784E-30  -6.23881725105301E-08   1.17780399198936E-15   7.20000000000000E-01   7.20000000000000E-01
      0.00000000000000E+00   0.00000000000000E+00   0.00000000000000E+00   0.00000000000000E+00   0.00000000000000E+00
      7.81351115695624E-16  -4.50000000000000E-01  -4.50000000000000E-01   0.00000000000000E+00   0.00000000000000E+00
     -2.69700468284695E-18  -5.58223483612784E-30  -2.69700468285253E-18  -5.07176411730218E-15   1.80000000000000E+00
      1.80000000000000E+00   0.00000000000000E+00   0.00000000000000E+00   6.23881725132271E-08  -8.36191676204868E-47
      6.23881725132271E-08   3.11260900961719E-15
      4.50000000000000E-01
      0.00000000000000E+00   0.00000000000000E+00   0.00000000000000E+00   0.00000000000000E+00  -8.72628752695669E-07
      4.39438090987142E-30  -8.72628752695669E-07   1.15117493573805E-15   8.10000000000000E-01   8.10000000000000E-01
      0.00000000000000E+00   0.00000000000000E+00   0.00000000000000E+00   0.00000000000000E+00   0.00000000000000E+00
      1.01156969073473E-15  -4.50000000000000E-01  -4.50000000000000E-01   0.00000000000000E+00   0.00000000000000E+00
      1.29623929159644E-18  -4.39438090987142E-30   1.29623929159205E-18  -5.23153330749651E-15   1.80000000000000E+00
      1.80000000000000E+00   0.00000000000000E+00   0.00000000000000E+00   8.72628752694373E-07   1.18283378225095E-46
      8.72628752694373E-07   3.06878868102373E-15
      5.00000000000000E-01
      0.00000000000000E+00   0.00000000000000E+00   0.00000000000000E+00   0.00000000000000E+00  -4.97336581464943E-06
      5.62175033825287E-30  -4.97336581464943E-06   1.12759547903205E-15   9.00000000000000E-01   9.00000000000000E-01
      0.00000000000000E+00   0.00000000000000E+00   0.00000000000000E+00   0.00000000000000E+00   0.00000000000000E+00
      1.29946445374920E-15  -4.50000000000000E-01  -4.50000000000000E-01   0.00000000000000E+00   0.00000000000000E+00
     -5.40189485593378E-16  -5.62175033825287E-30  -5.40189485593384E-16  -5.45034634822408E-15   1.80000000000000E+00
      1.80000000000000E+00   0.00000000000000E+00   0.00000000000000E+00   4.97336581518963E-06   1.00451846156662E-46
      4.97336581518963E-06   3.02328641544283E-15
      5.50000000000000E-01
      0.00000000000000E+00   0.00000000000000E+00   0.00000000000000E+00   0.00000000000000E+00  -1.41233183089595E-05
      4.70497975810505E-30  -1.41233183089595E-05   1.10593392879522E-15   9.90000000000000E-01   9.90000000000000E-01
      0.00000000000000E+00   0.00000000000000E+00   0.00000000000000E+00   0.00000000000000E+00   0.00000000000000E+00
      1.62711261375406E-15  -4.50000000000000E-01  -4.50000000000000E-01   0.00000000000000E+00   0.00000000000000E+00
      1.11177479631958E-17  -4.70497975810505E-30   1.11177479631911E-17  -5.70858205155901E-15   1.80000000000000E+00
      1.80000000000000E+00   0.00000000000000E+00   0.00000000000000E+00   1.41233183089483E-05   2.40935886915398E-47
      1.41233183089483E-05   2.97553550900974E-15
      6.00000000000000E-01
      0.00000000000000E+00   0.00000000000000E+00   0.00000000000000E+00   0.00000000000000E+00  -2.82359269486511E-05
      7.12040487704523E-30  -2.82359269486511E-05   1.08558439174911E-15   1.08000000000000E+00   1.08000000000000E+00
      0.00000000000000E+00   0.00000000000000E+00   0.00000000000000E+00   0.00000000000000E+00   0.00000000000000E+00
      1.97776188225383E-15  -4.50000000000000E-01  -4.50000000000000E-01   0.00000000000000E+00   0.00000000000000E+00
     -3.15487249544994E-17  -7.12040487704523E-30  -3.15487249545066E-17  -5.98882163000214E-15   1.80000000000000E+00
      1.80000000000000E+00   0.00000000000000E+00   0.00000000000000E+00   2.82359269486827E-05   5.83455099957832E-47
      2.82359269486827E-05   2.92547535599920E-15
      6.50000000000000E-01
      0.00000000000000E+00   0.00000000000000E+00   0.00000000000000E+00   0.00000000000000E+00  -4.67542382450728E-05
      3.26738899537420E-30  -4.67542382450728E-05   1.06619781029398E-15   1.17000000000000E+00   1.17000000000000E+00
      0.00000000000000E+00   0.00000000000000E+00   0.00000000000000E+00   0.00000000000000E+00   0.00000000000000E+00
      2.34434157124499E-15  -4.50000000000000E-01  -4.50000000000000E-01   0.00000000000000E+00   0.00000000000000E+00
     -5.89551341439123E-18  -3.26738899537421E-30  -5.89551341439450E-18  -6.28385719034141E-15   1.80000000000000E+00
      1.80000000000000E+00   0.00000000000000E+00   0.00000000000000E+00   4.67542382450786E-05  -1.56994038604222E-47
      4.67542382450786E-05   2.87331780880244E-15
      7.00000000000000E-01
      0.00000000000000E+00   0.00000000000000E+00   0.00000000000000E+00   0.00000000000000E+00  -6.91131063711747E-05
      5.74977424620675E-30  -6.91131063711747E-05   1.04755056964777E-15   1.26000000000000E+00   1.26000000000000E+00
      0.00000000000000E+00   0.00000000000000E+00   0.00000000000000E+00   0.00000000000000E+00   0.00000000000000E+00
      2.72328687965861E-15  -4.50000000000000E-01  -4.50000000000000E-01   0.00000000000000E+00   0.00000000000000E+00
      7.48651828571939E-19  -5.74977424620675E-30   7.48651828566189E-19  -6.59033069988342E-15   1.80000000000000E+00
      1.80000000000000E+00   0.00000000000000E+00   0.00000000000000E+00   6.91131063711740E-05   5.32888877211816E-47
      6.91131063711740E-05   2.81949325057705E-15
      7.50000000000000E-01
      0.00000000000000E+00   0.00000000000000E+00   0.00000000000000E+00   0.00000000000000E+00  -9.48175127171375E-05
      4.62503648701912E-30  -9.48175127171375E-05   1.02948961157989E-15   1.35000000000000E+00   1.35000000000000E+00
      0.00000000000000E+00   0.00000000000000E+00   0.00000000000000E+00   0.00000000000000E+00   0.00000000000000E+00
      3.11234047089649E-15  -4.50000000000000E-01  -4.50000000000000E-01   0.00000000000000E+00   0.00000000000000E+00
      4.27980046347454E-18  -4.62503648701912E-30   4.27980046346992E-18  -6.90636319599939E-15   1.80000000000000E+00
      1.80000000000000E+00   0.00000000000000E+00   0.00000000000000E+00   9.48175127171331E-05   1.34895119168295E-46
      9.48175127171331E-05   2.76453311352301E-15
      8.00000000000000E-01
      0.00000000000000E+00   0.00000000000000E+00   0.00000000000000E+00   0.00000000000000E+00  -1.23446280238308E-04
      6.06451973219685E-30  -1.23446280238308E-04   1.01190524943875E-15   1.44000000000000E+00   1.44000000000000E+00
      0.00000000000000E+00   0.00000000000000E+00   0.00000000000000E+00   0.00000000000000E+00   0.00000000000000E+00
      3.50994712015915E-15  -4.50000000000000E-01  -4.50000000000000E-01   0.00000000000000E+00   0.00000000000000E+00
     -1.97155307369100E-18  -6.06451973219685E-30  -1.97155307369706E-18  -7.23076750635853E-15   1.80000000000000E+00
      1.80000000000000E+00   0.00000000000000E+00   0.00000000000000E+00   1.23446280238310E-04   4.72571430769437E-47
      1.23446280238310E-04   2.70891513676064E-15
      8.50000000000000E-01
      0.00000000000000E+00   0.00000000000000E+00   0.00000000000000E+00   0.00000000000000E+00  -1.54643883025970E-04
      4.81657983980197E-30  -1.54643883025970E-04   9.94716073549395E-16   1.53000000000000E+00   1.53000000000000E+00
      0.00000000000000E+00   0.00000000000000E+00   0.00000000000000E+00   0.00000000000000E+00   0.00000000000000E+00
      3.91499476955309E-15  -4.50000000000000E-01  -4.50000000000000E-01   0.00000000000000E+00   0.00000000000000E+00
      6.79961813267196E-19  -4.81657983980197E-30   6.79961813262379E-19  -7.56268438352254E-15   1.80000000000000E+00
      1.80000000000000E+00   0.00000000000000E+00   0.00000000000000E+00   1.54643883025969E-04   8.18161006677622E-47
      1.54643883025969E-04   2.65297354042005E-15
      9.00000000000000E-01
      0.00000000000000E+00   0.00000000000000E+00   0.00000000000000E+00   0.00000000000000E+00  -1.88111811405762E-04
      5.14467646858419E-30  -1.88111811405762E-04   9.77859987788053E-16   1.62000000000000E+00   1.62000000000000E+00
      0.00000000000000E+00   0.00000000000000E+00   0.00000000000000E+00   0.00000000000000E+00   0.00000000000000E+00
      4.32666059583256E-15  -4.50000000000000E-01  -4.50000000000000E-01   0.00000000000000E+00   0.00000000000000E+00
     -5.39113727993591E-19  -5.14467646858419E-30  -5.39113727998736E-19  -7.90141268667415E-15   1.80000000000000E+00
      1.80000000000000E+00   0.00000000000000E+00   0.00000000000000E+00   1.88111811405762E-04   1.44918885611996E-46
      1.88111811405762E-04   2.59689210305353E-15
      9.50000000000000E-01
      0.00000000000000E+00   0.00000000000000E+00   0.00000000000000E+00   0.00000000000000E+00  -2.23589845466668E-04
      5.19970694689134E-30  -2.23589845466668E-04   9.61288604510602E-16   1.71000000000000E+00   1.71000000000000E+00
      0.00000000000000E+00   0.00000000000000E+00   0.00000000000000E+00   0.00000000000000E+00   0.00000000000000E+00
      4.74467356698554E-15  -4.50000000000000E-01  -4.50000000000000E-01   0.00000000000000E+00   0.00000000000000E+00
      1.14742963020347E-17  -5.19970694689133E-30   1.14742963020295E-17  -8.24673820477563E-15   1.80000000000000E+00
      1.80000000000000E+00   0.00000000000000E+00   0.00000000000000E+00   2.23589845466656E-04   2.32929692604030E-46
      2.23589845466656E-04   2.54077603327948E-15
      1.00000000000000E+00
      0.00000000000000E+00   0.00000000000000E+00   0.00000000000000E+00   0.00000000000000E+00  -2.60869810034164E-04
      6.16146766012882E-30  -2.60869810034164E-04   9.44963407458682E-16   1.80000000000000E+00   1.80000000000000E+00
      0.00000000000000E+00   0.00000000000000E+00   0.00000000000000E+00   0.00000000000000E+00   0.00000000000000E+00
      5.16824984645304E-15  -4.50000000000000E-01  -4.50000000000000E-01   0.00000000000000E+00   0.00000000000000E+00
      1.76321605897742E-17  -6.16146766012882E-30   1.76321605897681E-17  -8.59800471638609E-15   1.80000000000000E+00
      1.80000000000000E+00   0.00000000000000E+00   0.00000000000000E+00   2.60869810034146E-04   1.27235584373236E-46
      2.60869810034146E-04   2.48479146247436E-15
}
