DF-ISE text

Info {
  version   = 1.0
  type      = xyplot
  datasets  = [
    "time"
    "source OuterVoltage" "source InnerVoltage" "source QuasiFermiPotential" "source DisplacementCurrent" "source eCurrent"
    "source hCurrent" "source TotalCurrent" "source Charge" "gate OuterVoltage" "gate InnerVoltage"
    "gate QuasiFermiPotential" "gate DisplacementCurrent" "gate eCurrent" "gate hCurrent" "gate TotalCurrent"
    "gate Charge" "substrate OuterVoltage" "substrate InnerVoltage" "substrate QuasiFermiPotential" "substrate DisplacementCurrent"
    "substrate eCurrent" "substrate hCurrent" "substrate TotalCurrent" "substrate Charge" "drain OuterVoltage"
    "drain InnerVoltage" "drain QuasiFermiPotential" "drain DisplacementCurrent" "drain eCurrent" "drain hCurrent"
    "drain TotalCurrent" "drain Charge" ]
  functions = [
    Time
    OuterVoltage InnerVoltage QuasiFermiPotential DisplacementCurrent eCurrent
    hCurrent TotalCurrent Charge OuterVoltage InnerVoltage
    QuasiFermiPotential DisplacementCurrent eCurrent hCurrent TotalCurrent
    Charge OuterVoltage InnerVoltage QuasiFermiPotential DisplacementCurrent
    eCurrent hCurrent TotalCurrent Charge OuterVoltage
    InnerVoltage QuasiFermiPotential DisplacementCurrent eCurrent hCurrent
    TotalCurrent Charge ]
}

Data {
      5.00000000000000E-02
      0.00000000000000E+00   0.00000000000000E+00   0.00000000000000E+00   0.00000000000000E+00  -1.79853168999589E-14
      5.88317213079516E-34  -1.79853168999589E-14   1.78411440516169E-15   9.00000000000000E-02   9.00000000000000E-02
      0.00000000000000E+00   0.00000000000000E+00   0.00000000000000E+00   0.00000000000000E+00   0.00000000000000E+00
      7.83353575414467E-16  -9.00000000000000E-01  -9.00000000000000E-01   0.00000000000000E+00   0.00000000000000E+00
      1.97405817517649E-14  -6.67687556715924E-34   1.97405817517649E-14  -4.41106650049816E-15   5.00000000000000E-02
      5.00000000000000E-02   0.00000000000000E+00   0.00000000000000E+00  -1.75526485180604E-15   7.93703436364082E-35
     -1.75526485180604E-15   1.84359851992201E-15
      1.00000000000000E-01
      0.00000000000000E+00   0.00000000000000E+00   0.00000000000000E+00   0.00000000000000E+00   7.90657159846823E-15
      6.36906068897161E-34   7.90657159846823E-15   1.72633645963392E-15   1.80000000000000E-01   1.80000000000000E-01
      0.00000000000000E+00   0.00000000000000E+00   0.00000000000000E+00   0.00000000000000E+00   0.00000000000000E+00
      9.43048730985214E-16  -9.00000000000000E-01  -9.00000000000000E-01   0.00000000000000E+00   0.00000000000000E+00
     -8.49034756086528E-15  -7.75959268642922E-34  -8.49034756086528E-15  -4.45576270998204E-15   5.00000000000000E-02
      5.00000000000000E-02   0.00000000000000E+00   0.00000000000000E+00   5.83775962397051E-16   1.39053199745760E-34
      5.83775962397051E-16   1.78637751936291E-15
      1.50000000000000E-01
      0.00000000000000E+00   0.00000000000000E+00   0.00000000000000E+00   0.00000000000000E+00   3.13437793828776E-14
      3.95903869314396E-34   3.13437793828776E-14   1.66791156704643E-15   2.70000000000000E-01   2.70000000000000E-01
      0.00000000000000E+00   0.00000000000000E+00   0.00000000000000E+00   0.00000000000000E+00   0.00000000000000E+00
      1.10458984888355E-15  -9.00000000000000E-01  -9.00000000000000E-01   0.00000000000000E+00   0.00000000000000E+00
     -5.05812720333574E-14  -5.71366391373602E-34  -5.05812720333574E-14  -4.50073653755975E-15   5.00000000000000E-02
      5.00000000000000E-02   0.00000000000000E+00   0.00000000000000E+00   1.92374926504798E-14   1.75462522059207E-34
      1.92374926504798E-14   1.72823512162978E-15
      2.00000000000000E-01
      0.00000000000000E+00   0.00000000000000E+00   0.00000000000000E+00   0.00000000000000E+00   3.06741356318062E-14
      5.95777281837780E-34   3.06741356318062E-14   1.61024800550749E-15   3.60000000000000E-01   3.60000000000000E-01
      0.00000000000000E+00   0.00000000000000E+00   0.00000000000000E+00   0.00000000000000E+00   0.00000000000000E+00
      1.27008159076068E-15  -9.00000000000000E-01  -9.00000000000000E-01   0.00000000000000E+00   0.00000000000000E+00
     -7.35365747059379E-14  -7.10107153858043E-34  -7.35365747059379E-14  -4.55021922302027E-15   5.00000000000000E-02
      5.00000000000000E-02   0.00000000000000E+00   0.00000000000000E+00   4.28624390741317E-14   1.14329872020263E-34
      4.28624390741317E-14   1.66988962675210E-15
      2.50000000000000E-01
      0.00000000000000E+00   0.00000000000000E+00   0.00000000000000E+00   0.00000000000000E+00  -6.69857175875069E-13
      5.54998450518115E-34  -6.69857175875069E-13   1.55678180642014E-15   4.50000000000000E-01   4.50000000000000E-01
      0.00000000000000E+00   0.00000000000000E+00   0.00000000000000E+00   0.00000000000000E+00   0.00000000000000E+00
      1.44478799188914E-15  -9.00000000000000E-01  -9.00000000000000E-01   0.00000000000000E+00   0.00000000000000E+00
      6.34328789472473E-18  -6.69174970536844E-34   6.34328789472473E-18  -4.61515762984876E-15   5.00000000000000E-02
      5.00000000000000E-02   0.00000000000000E+00   0.00000000000000E+00   6.69850832587175E-13   1.14176520018729E-34
      6.69850832587175E-13   1.61358783153948E-15
      3.00000000000000E-01
      0.00000000000000E+00   0.00000000000000E+00   0.00000000000000E+00   0.00000000000000E+00  -1.40034782838639E-11
      6.09839603122667E-34  -1.40034782838639E-11   1.51102854058707E-15   5.40000000000000E-01   5.40000000000000E-01
      0.00000000000000E+00   0.00000000000000E+00   0.00000000000000E+00   0.00000000000000E+00   0.00000000000000E+00
      1.63566100776105E-15  -9.00000000000000E-01  -9.00000000000000E-01   0.00000000000000E+00   0.00000000000000E+00
     -1.67204144481062E-15  -7.84302146621519E-34  -1.67204144481062E-15  -4.70999978052445E-15   5.00000000000000E-02
      5.00000000000000E-02   0.00000000000000E+00   0.00000000000000E+00   1.40051503253088E-11   1.74462543498852E-34
      1.40051503253088E-11   1.56331023217634E-15
      3.50000000000000E-01
      0.00000000000000E+00   0.00000000000000E+00   0.00000000000000E+00   0.00000000000000E+00  -2.93532764757261E-10
      5.64658388720259E-34  -2.93532764757261E-10   1.47309765062456E-15   6.30000000000000E-01   6.30000000000000E-01
      0.00000000000000E+00   0.00000000000000E+00   0.00000000000000E+00   0.00000000000000E+00   0.00000000000000E+00
      1.84687865621246E-15  -9.00000000000000E-01  -9.00000000000000E-01   0.00000000000000E+00   0.00000000000000E+00
     -1.46499238936699E-12  -7.06796667226677E-34  -1.46499238936699E-12  -4.84118173697579E-15   5.00000000000000E-02
      5.00000000000000E-02   0.00000000000000E+00   0.00000000000000E+00   2.94997757146628E-10   1.42138278506418E-34
      2.94997757146628E-10   1.52120543013877E-15
      4.00000000000000E-01
      0.00000000000000E+00   0.00000000000000E+00   0.00000000000000E+00   0.00000000000000E+00  -6.20597800337372E-09
      6.38120934307420E-34  -6.20597800337372E-09   1.44130659936069E-15   7.20000000000000E-01   7.20000000000000E-01
      0.00000000000000E+00   0.00000000000000E+00   0.00000000000000E+00   0.00000000000000E+00   0.00000000000000E+00
      2.08169500187174E-15  -9.00000000000000E-01  -9.00000000000000E-01   0.00000000000000E+00   0.00000000000000E+00
     -1.95071897337037E-18  -7.85016971205693E-34  -1.95071897337037E-18  -5.00919093272746E-15   5.00000000000000E-02
      5.00000000000000E-02   0.00000000000000E+00   0.00000000000000E+00   6.20597800532443E-09   1.46896036898273E-34
      6.20597800532443E-09   1.48618933149504E-15
      4.50000000000000E-01
      0.00000000000000E+00   0.00000000000000E+00   0.00000000000000E+00   0.00000000000000E+00  -1.19598819726833E-07
      7.61116530897128E-34  -1.19598819726833E-07   1.41413099757818E-15   8.10000000000000E-01   8.10000000000000E-01
      0.00000000000000E+00   0.00000000000000E+00   0.00000000000000E+00   0.00000000000000E+00   0.00000000000000E+00
      2.35131656057407E-15  -9.00000000000000E-01  -9.00000000000000E-01   0.00000000000000E+00   0.00000000000000E+00
      1.53910873848365E-18  -9.37171252967546E-34   1.53910873848365E-18  -5.22202872518107E-15   5.00000000000000E-02
      5.00000000000000E-02   0.00000000000000E+00   0.00000000000000E+00   1.19598819725294E-07   1.76054722070418E-34
      1.19598819725294E-07   1.45658116702882E-15
      5.00000000000000E-01
      0.00000000000000E+00   0.00000000000000E+00   0.00000000000000E+00   0.00000000000000E+00  -1.19770541467286E-06
      7.12295621905220E-34  -1.19770541467286E-06   1.39021628519430E-15   9.00000000000000E-01   9.00000000000000E-01
      0.00000000000000E+00   0.00000000000000E+00   0.00000000000000E+00   0.00000000000000E+00   0.00000000000000E+00
      2.69378535676812E-15  -9.00000000000000E-01  -9.00000000000000E-01   0.00000000000000E+00   0.00000000000000E+00
     -3.01206751515657E-18  -8.28956159806503E-34  -3.01206751515657E-18  -5.51499543786977E-15   5.00000000000000E-02
      5.00000000000000E-02   0.00000000000000E+00   0.00000000000000E+00   1.19770541467587E-06   1.16660537901282E-34
      1.19770541467587E-06   1.43099379590735E-15
      5.50000000000000E-01
      0.00000000000000E+00   0.00000000000000E+00   0.00000000000000E+00   0.00000000000000E+00  -3.88014194850485E-06
      6.53733530413594E-34  -3.88014194850485E-06   1.36840765211162E-15   9.90000000000000E-01   9.90000000000000E-01
      0.00000000000000E+00   0.00000000000000E+00   0.00000000000000E+00   0.00000000000000E+00   0.00000000000000E+00
      3.13500434403285E-15  -9.00000000000000E-01  -9.00000000000000E-01   0.00000000000000E+00   0.00000000000000E+00
     -2.06580443637473E-15  -8.40603940883483E-34  -2.06580443637473E-15  -5.91156582181931E-15   5.00000000000000E-02
      5.00000000000000E-02   0.00000000000000E+00   0.00000000000000E+00   3.88014195057066E-06   1.86870410469890E-34
      3.88014195057066E-06   1.40815382567484E-15
      6.00000000000000E-01
      0.00000000000000E+00   0.00000000000000E+00   0.00000000000000E+00   0.00000000000000E+00  -7.06284255808596E-06
      7.07956708446167E-34  -7.06284255808596E-06   1.34795141576433E-15   1.08000000000000E+00   1.08000000000000E+00
      0.00000000000000E+00   0.00000000000000E+00   0.00000000000000E+00   0.00000000000000E+00   0.00000000000000E+00
      3.63160790196253E-15  -9.00000000000000E-01  -9.00000000000000E-01   0.00000000000000E+00   0.00000000000000E+00
     -7.86243758146813E-18  -7.93711305113972E-34  -7.86243758146813E-18  -6.36655826419741E-15   5.00000000000000E-02
      5.00000000000000E-02   0.00000000000000E+00   0.00000000000000E+00   7.06284255809382E-06   8.57545966678056E-35
      7.06284255809382E-06   1.38699894647054E-15
      6.50000000000000E-01
      0.00000000000000E+00   0.00000000000000E+00   0.00000000000000E+00   0.00000000000000E+00  -1.02647252342518E-05
      4.98681495155874E-34  -1.02647252342518E-05   1.32843111758475E-15   1.17000000000000E+00   1.17000000000000E+00
      0.00000000000000E+00   0.00000000000000E+00   0.00000000000000E+00   0.00000000000000E+00   0.00000000000000E+00
      4.15240825224692E-15  -9.00000000000000E-01  -9.00000000000000E-01   0.00000000000000E+00   0.00000000000000E+00
     -3.52720795453299E-17  -6.52331988686744E-34  -3.52720795453299E-17  -6.84778915031620E-15   5.00000000000000E-02
      5.00000000000000E-02   0.00000000000000E+00   0.00000000000000E+00   1.02647252342871E-05   1.53650493530870E-34
      1.02647252342871E-05   1.36694978048455E-15
      7.00000000000000E-01
      0.00000000000000E+00   0.00000000000000E+00   0.00000000000000E+00   0.00000000000000E+00  -1.33935416193931E-05
      7.35135185101312E-34  -1.33935416193931E-05   1.30960164852841E-15   1.26000000000000E+00   1.26000000000000E+00
      0.00000000000000E+00   0.00000000000000E+00   0.00000000000000E+00   0.00000000000000E+00   0.00000000000000E+00
      4.68573899157347E-15  -9.00000000000000E-01  -9.00000000000000E-01   0.00000000000000E+00   0.00000000000000E+00
     -7.32487337642568E-18  -8.69254792630048E-34  -7.32487337642569E-18  -7.34303625841148E-15   5.00000000000000E-02
      5.00000000000000E-02   0.00000000000000E+00   0.00000000000000E+00   1.33935416194004E-05   1.34119607528736E-34
      1.33935416194004E-05   1.34769561830960E-15
      7.50000000000000E-01
      0.00000000000000E+00   0.00000000000000E+00   0.00000000000000E+00   0.00000000000000E+00  -1.64339827712298E-05
      5.52810453403502E-34  -1.64339827712298E-05   1.29130481245931E-15   1.35000000000000E+00   1.35000000000000E+00
      0.00000000000000E+00   0.00000000000000E+00   0.00000000000000E+00   0.00000000000000E+00   0.00000000000000E+00
      5.22664185691337E-15  -9.00000000000000E-01  -9.00000000000000E-01   0.00000000000000E+00   0.00000000000000E+00
     -1.60853704634520E-17  -7.41367729905612E-34  -1.60853704634520E-17  -7.84699137643766E-15   5.00000000000000E-02
      5.00000000000000E-02   0.00000000000000E+00   0.00000000000000E+00   1.64339827712459E-05   1.88557276502110E-34
      1.64339827712459E-05   1.32904470706499E-15
      8.00000000000000E-01
      0.00000000000000E+00   0.00000000000000E+00   0.00000000000000E+00   0.00000000000000E+00  -1.93873600751028E-05
      6.29783611749155E-34  -1.93873600751028E-05   1.27343158039557E-15   1.44000000000000E+00   1.44000000000000E+00
      0.00000000000000E+00   0.00000000000000E+00   0.00000000000000E+00   0.00000000000000E+00   0.00000000000000E+00
      5.77261020683253E-15  -9.00000000000000E-01  -9.00000000000000E-01   0.00000000000000E+00   0.00000000000000E+00
      9.12289783440874E-18  -7.36458640107798E-34   9.12289783440874E-18  -8.35690989461198E-15   5.00000000000000E-02
      5.00000000000000E-02   0.00000000000000E+00   0.00000000000000E+00   1.93873600750936E-05   1.06675028358643E-34
      1.93873600750936E-05   1.31086810738387E-15
      8.50000000000000E-01
      0.00000000000000E+00   0.00000000000000E+00   0.00000000000000E+00   0.00000000000000E+00  -2.22587656591429E-05
      6.05600556308505E-34  -2.22587656591429E-05   1.25590329429640E-15   1.53000000000000E+00   1.53000000000000E+00
      0.00000000000000E+00   0.00000000000000E+00   0.00000000000000E+00   0.00000000000000E+00   0.00000000000000E+00
      6.32220814191793E-15  -9.00000000000000E-01  -9.00000000000000E-01   0.00000000000000E+00   0.00000000000000E+00
     -7.37537985600985E-12  -8.38933848675369E-34  -7.37537985600985E-12  -8.87118578583846E-15   5.00000000000000E-02
      5.00000000000000E-02   0.00000000000000E+00   0.00000000000000E+00   2.22587730345227E-05   2.33333292366864E-34
      2.22587730345227E-05   1.29307434962413E-15
      9.00000000000000E-01
      0.00000000000000E+00   0.00000000000000E+00   0.00000000000000E+00   0.00000000000000E+00  -2.50538488357329E-05
      6.31585308755925E-34  -2.50538488357329E-05   1.23866124251030E-15   1.62000000000000E+00   1.62000000000000E+00
      0.00000000000000E+00   0.00000000000000E+00   0.00000000000000E+00   0.00000000000000E+00   0.00000000000000E+00
      6.87453704158038E-15  -9.00000000000000E-01  -9.00000000000000E-01   0.00000000000000E+00   0.00000000000000E+00
     -3.91757722834609E-12  -8.07876147109761E-34  -3.91757722834609E-12  -9.38879431947418E-15   5.00000000000000E-02
      5.00000000000000E-02   0.00000000000000E+00   0.00000000000000E+00   2.50538527533101E-05   1.76290838353836E-34
      2.50538527533101E-05   1.27559603538350E-15
      9.50000000000000E-01
      0.00000000000000E+00   0.00000000000000E+00   0.00000000000000E+00   0.00000000000000E+00  -2.77778901392953E-05
      6.10925461568212E-34  -2.77778901392953E-05   1.22166041424146E-15   1.71000000000000E+00   1.71000000000000E+00
      0.00000000000000E+00   0.00000000000000E+00   0.00000000000000E+00   0.00000000000000E+00   0.00000000000000E+00
      7.42899687671615E-15  -9.00000000000000E-01  -9.00000000000000E-01   0.00000000000000E+00   0.00000000000000E+00
     -2.17855127642762E-12  -7.88905735937946E-34  -2.17855127642762E-12  -9.90903932434073E-15   5.00000000000000E-02
      5.00000000000000E-02   0.00000000000000E+00   0.00000000000000E+00   2.77778923178466E-05   1.77980274369734E-34
      2.77778923178466E-05   1.25838203338314E-15
      1.00000000000000E+00
      0.00000000000000E+00   0.00000000000000E+00   0.00000000000000E+00   0.00000000000000E+00  -3.04355743907608E-05
      4.16431215870715E-34  -3.04355743907608E-05   1.20486556038860E-15   1.80000000000000E+00   1.80000000000000E+00
      0.00000000000000E+00   0.00000000000000E+00   0.00000000000000E+00   0.00000000000000E+00   0.00000000000000E+00
      7.98516652192537E-15  -9.00000000000000E-01  -9.00000000000000E-01   0.00000000000000E+00   0.00000000000000E+00
     -1.26086496154809E-12  -5.71212204324423E-34  -1.26086496154809E-12  -1.04314247114091E-14   5.00000000000000E-02
      5.00000000000000E-02   0.00000000000000E+00   0.00000000000000E+00   3.04355756516258E-05   1.54780988453707E-34
      3.04355756516258E-05   1.24139262909512E-15
}
