DF-ISE text

Info {
  version   = 1.0
  type      = xyplot
  datasets  = [
    "time"
    "source OuterVoltage" "source InnerVoltage" "source QuasiFermiPotential" "source DisplacementCurrent" "source eCurrent"
    "source hCurrent" "source TotalCurrent" "source Charge" "gate OuterVoltage" "gate InnerVoltage"
    "gate QuasiFermiPotential" "gate DisplacementCurrent" "gate eCurrent" "gate hCurrent" "gate TotalCurrent"
    "gate Charge" "substrate OuterVoltage" "substrate InnerVoltage" "substrate QuasiFermiPotential" "substrate DisplacementCurrent"
    "substrate eCurrent" "substrate hCurrent" "substrate TotalCurrent" "substrate Charge" "drain OuterVoltage"
    "drain InnerVoltage" "drain QuasiFermiPotential" "drain DisplacementCurrent" "drain eCurrent" "drain hCurrent"
    "drain TotalCurrent" "drain Charge" ]
  functions = [
    Time
    OuterVoltage InnerVoltage QuasiFermiPotential DisplacementCurrent eCurrent
    hCurrent TotalCurrent Charge OuterVoltage InnerVoltage
    QuasiFermiPotential DisplacementCurrent eCurrent hCurrent TotalCurrent
    Charge OuterVoltage InnerVoltage QuasiFermiPotential DisplacementCurrent
    eCurrent hCurrent TotalCurrent Charge OuterVoltage
    InnerVoltage QuasiFermiPotential DisplacementCurrent eCurrent hCurrent
    TotalCurrent Charge ]
}

Data {
      5.00000000000000E-02
      0.00000000000000E+00   0.00000000000000E+00   0.00000000000000E+00   0.00000000000000E+00  -1.34367350194999E-14
      3.00650222956537E-42  -1.34367350194999E-14   2.25251645805562E-15   9.00000000000000E-02   9.00000000000000E-02
      0.00000000000000E+00   0.00000000000000E+00   0.00000000000000E+00   0.00000000000000E+00   0.00000000000000E+00
      2.76392684013245E-16  -1.80000000000000E+00  -1.80000000000000E+00   0.00000000000000E+00   0.00000000000000E+00
      1.34363326491237E-14  -3.00650222956537E-42   1.34363326491237E-14  -6.44762107498439E-15   1.80000000000000E+00
      1.80000000000000E+00   0.00000000000000E+00   0.00000000000000E+00   4.02370376247591E-19  -2.41066196369372E-59
      4.02370376247591E-19   3.91871193291553E-15
      1.00000000000000E-01
      0.00000000000000E+00   0.00000000000000E+00   0.00000000000000E+00   0.00000000000000E+00   1.08089014787431E-14
      2.07422358720313E-42   1.08089014787431E-14   2.19475973886046E-15   1.80000000000000E-01   1.80000000000000E-01
      0.00000000000000E+00   0.00000000000000E+00   0.00000000000000E+00   0.00000000000000E+00   0.00000000000000E+00
      4.08474277497081E-16  -1.80000000000000E+00  -1.80000000000000E+00   0.00000000000000E+00   0.00000000000000E+00
     -1.08108134830936E-14  -2.07422358720313E-42  -1.08108134830936E-14  -6.48248367300135E-15   1.80000000000000E+00
      1.80000000000000E+00   0.00000000000000E+00   0.00000000000000E+00   1.91200435048485E-18   4.87873776653347E-60
      1.91200435048485E-18   3.87924965664381E-15
      1.50000000000000E-01
      0.00000000000000E+00   0.00000000000000E+00   0.00000000000000E+00   0.00000000000000E+00   1.02482197051278E-13
      2.30531557599212E-42   1.02482197051278E-13   2.13640609096098E-15   2.70000000000000E-01   2.70000000000000E-01
      0.00000000000000E+00   0.00000000000000E+00   0.00000000000000E+00   0.00000000000000E+00   0.00000000000000E+00
      5.41583353151513E-16  -1.80000000000000E+00  -1.80000000000000E+00   0.00000000000000E+00   0.00000000000000E+00
     -1.02518068532488E-13  -2.30531557599212E-42  -1.02518068532488E-13  -6.51756041216286E-15   1.80000000000000E+00
      1.80000000000000E+00   0.00000000000000E+00   0.00000000000000E+00   3.58714812095570E-17   7.36138848962805E-60
      3.58714812095570E-17   3.83957096805038E-15
      2.00000000000000E-01
      0.00000000000000E+00   0.00000000000000E+00   0.00000000000000E+00   0.00000000000000E+00  -5.83939421778878E-14
      2.93901619483635E-42  -5.83939421778878E-14   2.07899500957597E-15   3.60000000000000E-01   3.60000000000000E-01
      0.00000000000000E+00   0.00000000000000E+00   0.00000000000000E+00   0.00000000000000E+00   0.00000000000000E+00
      6.76972455971875E-16  -1.80000000000000E+00  -1.80000000000000E+00   0.00000000000000E+00   0.00000000000000E+00
      5.75885097358049E-14  -2.93901619483635E-42   5.75885097358049E-14  -6.55561021496606E-15   1.80000000000000E+00
      1.80000000000000E+00   0.00000000000000E+00   0.00000000000000E+00   8.05432442082874E-16   1.22749539788900E-60
      8.05432442082874E-16   3.79964274941822E-15
      2.50000000000000E-01
      0.00000000000000E+00   0.00000000000000E+00   0.00000000000000E+00   0.00000000000000E+00  -1.83534568001903E-14
      2.58251317625609E-42  -1.83534568001903E-14   2.02585208493681E-15   4.50000000000000E-01   4.50000000000000E-01
      0.00000000000000E+00   0.00000000000000E+00   0.00000000000000E+00   0.00000000000000E+00   0.00000000000000E+00
      8.17778509151005E-16  -1.80000000000000E+00  -1.80000000000000E+00   0.00000000000000E+00   0.00000000000000E+00
      9.25763398819039E-19  -2.58251317625609E-42   9.25763398819039E-19  -6.60302996953135E-15   1.80000000000000E+00
      1.80000000000000E+00   0.00000000000000E+00   0.00000000000000E+00   1.83525310367915E-14   6.58225410186944E-60
      1.83525310367915E-14   3.75939937544354E-15
      3.00000000000000E-01
      0.00000000000000E+00   0.00000000000000E+00   0.00000000000000E+00   0.00000000000000E+00  -4.18842634615698E-13
      1.89107405355436E-42  -4.18842634615698E-13   1.98014243956705E-15   5.40000000000000E-01   5.40000000000000E-01
      0.00000000000000E+00   0.00000000000000E+00   0.00000000000000E+00   0.00000000000000E+00   0.00000000000000E+00
      9.67390997056842E-16  -1.80000000000000E+00  -1.80000000000000E+00   0.00000000000000E+00   0.00000000000000E+00
     -1.58740907623951E-15  -1.89107405355436E-42  -1.58740907623951E-15  -6.66627051302490E-15   1.80000000000000E+00
      1.80000000000000E+00   0.00000000000000E+00   0.00000000000000E+00   4.20430043691938E-13   1.29486636550882E-59
      4.20430043691938E-13   3.71873707640102E-15
      3.50000000000000E-01
      0.00000000000000E+00   0.00000000000000E+00   0.00000000000000E+00   0.00000000000000E+00  -9.66835140233904E-12
      3.06565945045059E-42  -9.66835140233904E-12   1.94194184487600E-15   6.30000000000000E-01   6.30000000000000E-01
      0.00000000000000E+00   0.00000000000000E+00   0.00000000000000E+00   0.00000000000000E+00   0.00000000000000E+00
      1.12698021740247E-15  -1.80000000000000E+00  -1.80000000000000E+00   0.00000000000000E+00   0.00000000000000E+00
     -3.34535633961524E-18  -3.06565945045058E-42  -3.34535633961524E-18  -6.74641095640316E-15   1.80000000000000E+00
      1.80000000000000E+00   0.00000000000000E+00   0.00000000000000E+00   9.66835474769538E-12   8.37965755358422E-60
      9.66835474769538E-12   3.67748889412468E-15
      4.00000000000000E-01
      0.00000000000000E+00   0.00000000000000E+00   0.00000000000000E+00   0.00000000000000E+00  -2.22843073061073E-10
      1.56087763197356E-42  -2.22843073061073E-10   1.90953983717373E-15   7.20000000000000E-01   7.20000000000000E-01
      0.00000000000000E+00   0.00000000000000E+00   0.00000000000000E+00   0.00000000000000E+00   0.00000000000000E+00
      1.29714533568635E-15  -1.80000000000000E+00  -1.80000000000000E+00   0.00000000000000E+00   0.00000000000000E+00
      7.58103006107521E-18  -1.56087763197356E-42   7.58103006107521E-18  -6.84212183930168E-15   1.80000000000000E+00
      1.80000000000000E+00   0.00000000000000E+00   0.00000000000000E+00   2.22843065480043E-10   3.69194397693641E-60
      2.22843065480043E-10   3.63543666644160E-15
      4.50000000000000E-01
      0.00000000000000E+00   0.00000000000000E+00   0.00000000000000E+00   0.00000000000000E+00  -5.11679834342509E-09
      3.00980325408643E-42  -5.11679834342509E-09   1.88148577935372E-15   8.10000000000000E-01   8.10000000000000E-01
      0.00000000000000E+00   0.00000000000000E+00   0.00000000000000E+00   0.00000000000000E+00   0.00000000000000E+00
      1.48045266575454E-15  -1.80000000000000E+00  -1.80000000000000E+00   0.00000000000000E+00   0.00000000000000E+00
     -4.94154848679397E-19  -3.00980325408644E-42  -4.94154848679397E-19  -6.95437269231620E-15   1.80000000000000E+00
      1.80000000000000E+00   0.00000000000000E+00   0.00000000000000E+00   5.11679834391924E-09   9.61666464905494E-60
      5.11679834391924E-09   3.59243424720794E-15
      5.00000000000000E-01
      0.00000000000000E+00   0.00000000000000E+00   0.00000000000000E+00   0.00000000000000E+00  -1.10169254752777E-07
      2.40916627172492E-42  -1.10169254752777E-07   1.85673176445721E-15   9.00000000000000E-01   9.00000000000000E-01
      0.00000000000000E+00   0.00000000000000E+00   0.00000000000000E+00   0.00000000000000E+00   0.00000000000000E+00
      1.68343267127271E-15  -1.80000000000000E+00  -1.80000000000000E+00   0.00000000000000E+00   0.00000000000000E+00
     -3.56155026441086E-19  -2.40916627172492E-42  -3.56155026441086E-19  -7.08862075353838E-15   1.80000000000000E+00
      1.80000000000000E+00   0.00000000000000E+00   0.00000000000000E+00   1.10169254753134E-07   1.06194506933386E-59
      1.10169254753134E-07   3.54845631780845E-15
      5.50000000000000E-01
      0.00000000000000E+00   0.00000000000000E+00   0.00000000000000E+00   0.00000000000000E+00  -1.43264869071896E-06
      1.42903746964304E-42  -1.43264869071896E-06   1.83440063599386E-15   9.90000000000000E-01   9.90000000000000E-01
      0.00000000000000E+00   0.00000000000000E+00   0.00000000000000E+00   0.00000000000000E+00   0.00000000000000E+00
      1.92774034760582E-15  -1.80000000000000E+00  -1.80000000000000E+00   0.00000000000000E+00   0.00000000000000E+00
     -1.00806333513164E-17  -1.42903746964304E-42  -1.00806333513164E-17  -7.26535498107048E-15   1.80000000000000E+00
      1.80000000000000E+00   0.00000000000000E+00   0.00000000000000E+00   1.43264869072904E-06   1.31743769840856E-59
      1.43264869072904E-06   3.50321399747080E-15
      6.00000000000000E-01
      0.00000000000000E+00   0.00000000000000E+00   0.00000000000000E+00   0.00000000000000E+00  -6.91278719154994E-06
      1.49592781209170E-42  -6.91278719154994E-06   1.81367999763825E-15   1.08000000000000E+00   1.08000000000000E+00
      0.00000000000000E+00   0.00000000000000E+00   0.00000000000000E+00   0.00000000000000E+00   0.00000000000000E+00
      2.22643281914306E-15  -1.80000000000000E+00  -1.80000000000000E+00   0.00000000000000E+00   0.00000000000000E+00
      7.82645583080545E-18  -1.49592781209170E-42   7.82645583080545E-18  -7.49592866250305E-15   1.80000000000000E+00
      1.80000000000000E+00   0.00000000000000E+00   0.00000000000000E+00   6.91278719154211E-06   1.10601164084971E-59
      6.91278719154211E-06   3.45581584572173E-15
      6.50000000000000E-01
      0.00000000000000E+00   0.00000000000000E+00   0.00000000000000E+00   0.00000000000000E+00  -1.77379306470527E-05
      3.11150149891826E-42  -1.77379306470527E-05   1.79400958823704E-15   1.17000000000000E+00   1.17000000000000E+00
      0.00000000000000E+00   0.00000000000000E+00   0.00000000000000E+00   0.00000000000000E+00   0.00000000000000E+00
      2.55990655678848E-15  -1.80000000000000E+00  -1.80000000000000E+00   0.00000000000000E+00   0.00000000000000E+00
     -7.83775086759983E-19  -3.11150149891826E-42  -7.83775086759983E-19  -7.75977196802766E-15   1.80000000000000E+00
      1.80000000000000E+00   0.00000000000000E+00   0.00000000000000E+00   1.77379306470534E-05   6.77310852097139E-60
      1.77379306470534E-05   3.40585582300213E-15
      7.00000000000000E-01
      0.00000000000000E+00   0.00000000000000E+00   0.00000000000000E+00   0.00000000000000E+00  -3.34632964005612E-05
      2.20261376201441E-42  -3.34632964005612E-05   1.77510239545298E-15   1.26000000000000E+00   1.26000000000000E+00
      0.00000000000000E+00   0.00000000000000E+00   0.00000000000000E+00   0.00000000000000E+00   0.00000000000000E+00
      2.91474501871692E-15  -1.80000000000000E+00  -1.80000000000000E+00   0.00000000000000E+00   0.00000000000000E+00
     -8.05403078729214E-17  -2.20261376201441E-42  -8.05403078729214E-17  -8.04352326128678E-15   1.80000000000000E+00
      1.80000000000000E+00   0.00000000000000E+00   0.00000000000000E+00   3.34632964006418E-05   7.85167731754894E-60
      3.34632964006418E-05   3.35367584711687E-15
      7.50000000000000E-01
      0.00000000000000E+00   0.00000000000000E+00   0.00000000000000E+00   0.00000000000000E+00  -5.34260516296174E-05
      2.65899905313903E-42  -5.34260516296174E-05   1.75678767557348E-15   1.35000000000000E+00   1.35000000000000E+00
      0.00000000000000E+00   0.00000000000000E+00   0.00000000000000E+00   0.00000000000000E+00   0.00000000000000E+00
      3.28470156848634E-15  -1.80000000000000E+00  -1.80000000000000E+00   0.00000000000000E+00   0.00000000000000E+00
      1.18852499895730E-18  -2.65899905313903E-42   1.18852499895730E-18  -8.34139641065357E-15   1.80000000000000E+00
      1.80000000000000E+00   0.00000000000000E+00   0.00000000000000E+00   5.34260516296162E-05   8.29813043815819E-60
      5.34260516296162E-05   3.29990716659376E-15
      8.00000000000000E-01
      0.00000000000000E+00   0.00000000000000E+00   0.00000000000000E+00   0.00000000000000E+00  -7.70378547789890E-05
      2.53412061721192E-42  -7.70378547789890E-05   1.73894984463339E-15   1.44000000000000E+00   1.44000000000000E+00
      0.00000000000000E+00   0.00000000000000E+00   0.00000000000000E+00   0.00000000000000E+00   0.00000000000000E+00
      3.66637866328651E-15  -1.80000000000000E+00  -1.80000000000000E+00   0.00000000000000E+00   0.00000000000000E+00
     -5.19873852822298E-18  -2.53412061721192E-42  -5.19873852822298E-18  -8.65046884814075E-15   1.80000000000000E+00
      1.80000000000000E+00   0.00000000000000E+00   0.00000000000000E+00   7.70378547789941E-05   7.10692002042493E-60
      7.70378547789941E-05   3.24514034022085E-15
      8.50000000000000E-01
      0.00000000000000E+00   0.00000000000000E+00   0.00000000000000E+00   0.00000000000000E+00  -1.03806531471544E-04
      3.12544013984196E-42  -1.03806531471544E-04   1.72150545280822E-15   1.53000000000000E+00   1.53000000000000E+00
      0.00000000000000E+00   0.00000000000000E+00   0.00000000000000E+00   0.00000000000000E+00   0.00000000000000E+00
      4.05775031055690E-15  -1.80000000000000E+00  -1.80000000000000E+00   0.00000000000000E+00   0.00000000000000E+00
     -1.01775435537981E-17  -3.12544013984196E-42  -1.01775435537981E-17  -8.96905496408154E-15   1.80000000000000E+00
      1.80000000000000E+00   0.00000000000000E+00   0.00000000000000E+00   1.03806531471554E-04   8.17055111022753E-60
      1.03806531471554E-04   3.18979920071642E-15
      9.00000000000000E-01
      0.00000000000000E+00   0.00000000000000E+00   0.00000000000000E+00   0.00000000000000E+00  -1.33320767704836E-04
      2.85487551712260E-42  -1.33320767704836E-04   1.70439179158132E-15   1.62000000000000E+00   1.62000000000000E+00
      0.00000000000000E+00   0.00000000000000E+00   0.00000000000000E+00   0.00000000000000E+00   0.00000000000000E+00
      4.45761922423861E-15  -1.80000000000000E+00  -1.80000000000000E+00   0.00000000000000E+00   0.00000000000000E+00
     -3.20264156262980E-19  -2.85487551712260E-42  -3.20264156262980E-19  -9.29615448937920E-15   1.80000000000000E+00
      1.80000000000000E+00   0.00000000000000E+00   0.00000000000000E+00   1.33320767704837E-04   1.30598314666251E-59
      1.33320767704837E-04   3.13414347355928E-15
      9.50000000000000E-01
      0.00000000000000E+00   0.00000000000000E+00   0.00000000000000E+00   0.00000000000000E+00  -1.65237913889299E-04
      1.53005117615887E-42  -1.65237913889299E-04   1.68756039488575E-15   1.71000000000000E+00   1.71000000000000E+00
      0.00000000000000E+00   0.00000000000000E+00   0.00000000000000E+00   0.00000000000000E+00   0.00000000000000E+00
      4.86501781023136E-15  -1.80000000000000E+00  -1.80000000000000E+00   0.00000000000000E+00   0.00000000000000E+00
      4.91292766999543E-18  -1.53005117615887E-42   4.91292766999543E-18  -9.63087819400878E-15   1.80000000000000E+00
      1.80000000000000E+00   0.00000000000000E+00   0.00000000000000E+00   1.65237913889294E-04   8.22480234547982E-60
      1.65237913889294E-04   3.07829998889167E-15
      1.00000000000000E+00
      0.00000000000000E+00   0.00000000000000E+00   0.00000000000000E+00   0.00000000000000E+00  -1.99271153194537E-04
      1.94062865373790E-42  -1.99271153194537E-04   1.67097291279549E-15   1.80000000000000E+00   1.80000000000000E+00
      0.00000000000000E+00   0.00000000000000E+00   0.00000000000000E+00   0.00000000000000E+00   0.00000000000000E+00
      5.27922947442762E-15  -1.80000000000000E+00  -1.80000000000000E+00   0.00000000000000E+00   0.00000000000000E+00
      1.88915651668103E-17  -1.94062865373790E-42   1.88915651668103E-17  -9.97261605473498E-15   1.80000000000000E+00
      1.80000000000000E+00   0.00000000000000E+00   0.00000000000000E+00   1.99271153194519E-04   9.72439457587412E-60
      1.99271153194519E-04   3.02241366751188E-15
}
