DF-ISE text

Info {
  version   = 1.0
  type      = xyplot
  datasets  = [
    "time"
    "source OuterVoltage" "source InnerVoltage" "source QuasiFermiPotential" "source DisplacementCurrent" "source eCurrent"
    "source hCurrent" "source TotalCurrent" "source Charge" "gate OuterVoltage" "gate InnerVoltage"
    "gate QuasiFermiPotential" "gate DisplacementCurrent" "gate eCurrent" "gate hCurrent" "gate TotalCurrent"
    "gate Charge" "substrate OuterVoltage" "substrate InnerVoltage" "substrate QuasiFermiPotential" "substrate DisplacementCurrent"
    "substrate eCurrent" "substrate hCurrent" "substrate TotalCurrent" "substrate Charge" "drain OuterVoltage"
    "drain InnerVoltage" "drain QuasiFermiPotential" "drain DisplacementCurrent" "drain eCurrent" "drain hCurrent"
    "drain TotalCurrent" "drain Charge" ]
  functions = [
    Time
    OuterVoltage InnerVoltage QuasiFermiPotential DisplacementCurrent eCurrent
    hCurrent TotalCurrent Charge OuterVoltage InnerVoltage
    QuasiFermiPotential DisplacementCurrent eCurrent hCurrent TotalCurrent
    Charge OuterVoltage InnerVoltage QuasiFermiPotential DisplacementCurrent
    eCurrent hCurrent TotalCurrent Charge OuterVoltage
    InnerVoltage QuasiFermiPotential DisplacementCurrent eCurrent hCurrent
    TotalCurrent Charge ]
}

Data {
      5.00000000000000E-02
      0.00000000000000E+00   0.00000000000000E+00   0.00000000000000E+00   0.00000000000000E+00  -3.33173952602115E-15
     -6.70548965798297E-39  -3.33173952602115E-15   2.03462751140349E-15   9.00000000000000E-02   9.00000000000000E-02
      0.00000000000000E+00   0.00000000000000E+00   0.00000000000000E+00   0.00000000000000E+00   0.00000000000000E+00
      2.48117759557272E-15  -1.35000000000000E+00  -1.35000000000000E+00   0.00000000000000E+00   0.00000000000000E+00
      3.33118942097652E-15   6.70548965798295E-39   3.33118942097652E-15  -8.29920047549102E-15   1.80000000000000E+00
      1.80000000000000E+00   0.00000000000000E+00   0.00000000000000E+00   5.50105044627245E-19   1.86908624138240E-53
      5.50105044627245E-19   3.78339536851481E-15
      1.00000000000000E-01
      0.00000000000000E+00   0.00000000000000E+00   0.00000000000000E+00   0.00000000000000E+00   5.47662136318073E-13
     -1.20377968288653E-38   5.47662136318073E-13   1.97440110934878E-15   1.80000000000000E-01   1.80000000000000E-01
      0.00000000000000E+00   0.00000000000000E+00   0.00000000000000E+00   0.00000000000000E+00   0.00000000000000E+00
      2.68848056642991E-15  -1.35000000000000E+00  -1.35000000000000E+00   0.00000000000000E+00   0.00000000000000E+00
     -5.47665175104409E-13   1.20377968288653E-38  -5.47665175104409E-13  -8.40503162592227E-15   1.80000000000000E+00
      1.80000000000000E+00   0.00000000000000E+00   0.00000000000000E+00   3.03878633619716E-18  -1.34887208339923E-54
      3.03878633619716E-18   3.74214995014358E-15
      1.50000000000000E-01
      0.00000000000000E+00   0.00000000000000E+00   0.00000000000000E+00   0.00000000000000E+00   2.92404849842702E-14
     -6.63916543723830E-39   2.92404849842702E-14   1.91320412652984E-15   2.70000000000000E-01   2.70000000000000E-01
      0.00000000000000E+00   0.00000000000000E+00   0.00000000000000E+00   0.00000000000000E+00   0.00000000000000E+00
      2.89571298252033E-15  -1.35000000000000E+00  -1.35000000000000E+00   0.00000000000000E+00   0.00000000000000E+00
     -2.92963462338139E-14   6.63916543723830E-39  -2.92963462338139E-14  -8.50936511242808E-15   1.80000000000000E+00
      1.80000000000000E+00   0.00000000000000E+00   0.00000000000000E+00   5.58612495436758E-17  -3.37822880237311E-55
      5.58612495436758E-17   3.70044800337792E-15
      2.00000000000000E-01
      0.00000000000000E+00   0.00000000000000E+00   0.00000000000000E+00   0.00000000000000E+00  -1.76104866389902E-14
     -7.72689678371145E-39  -1.76104866389902E-14   1.85253286983375E-15   3.60000000000000E-01   3.60000000000000E-01
      0.00000000000000E+00   0.00000000000000E+00   0.00000000000000E+00   0.00000000000000E+00   0.00000000000000E+00
      3.10380730350016E-15  -1.35000000000000E+00  -1.35000000000000E+00   0.00000000000000E+00   0.00000000000000E+00
      1.64231122759327E-14   7.72689678371145E-39   1.64231122759327E-14  -8.61467240323549E-15   1.80000000000000E+00
      1.80000000000000E+00   0.00000000000000E+00   0.00000000000000E+00   1.18737436305755E-15  -3.40594424530821E-56
      1.18737436305755E-15   3.65833222990159E-15
      2.50000000000000E-01
      0.00000000000000E+00   0.00000000000000E+00   0.00000000000000E+00   0.00000000000000E+00  -2.56347192823644E-14
     -4.49195198380816E-39  -2.56347192823644E-14   1.79514745563720E-15   4.50000000000000E-01   4.50000000000000E-01
      0.00000000000000E+00   0.00000000000000E+00   0.00000000000000E+00   0.00000000000000E+00   0.00000000000000E+00
      3.31579419067466E-15  -1.35000000000000E+00  -1.35000000000000E+00   0.00000000000000E+00   0.00000000000000E+00
     -3.11015721974955E-19   4.49195198380816E-39  -3.11015721974955E-19  -8.72673437562659E-15   1.80000000000000E+00
      1.80000000000000E+00   0.00000000000000E+00   0.00000000000000E+00   2.56350302980863E-14  -4.27508401357455E-55
      2.56350302980863E-14   3.61579272931474E-15
      3.00000000000000E-01
      0.00000000000000E+00   0.00000000000000E+00   0.00000000000000E+00   0.00000000000000E+00  -5.60258660205429E-13
     -7.33436259294725E-39  -5.60258660205429E-13   1.74391771169119E-15   5.40000000000000E-01   5.40000000000000E-01
      0.00000000000000E+00   0.00000000000000E+00   0.00000000000000E+00   0.00000000000000E+00   0.00000000000000E+00
      3.53527200132096E-15  -1.35000000000000E+00  -1.35000000000000E+00   0.00000000000000E+00   0.00000000000000E+00
      1.95822972293869E-15   7.33436259294724E-39   1.95822972293869E-15  -8.85191108275569E-15   1.80000000000000E+00
      1.80000000000000E+00   0.00000000000000E+00   0.00000000000000E+00   5.58300430482490E-13  -2.00215999319520E-55
      5.58300430482490E-13   3.57272136974355E-15
      3.50000000000000E-01
      0.00000000000000E+00   0.00000000000000E+00   0.00000000000000E+00   0.00000000000000E+00  -1.22607504966699E-11
     -1.11443420063079E-38  -1.22607504966699E-11   1.69939789872380E-15   6.30000000000000E-01   6.30000000000000E-01
      0.00000000000000E+00   0.00000000000000E+00   0.00000000000000E+00   0.00000000000000E+00   0.00000000000000E+00
      3.76359332573490E-15  -1.35000000000000E+00  -1.35000000000000E+00   0.00000000000000E+00   0.00000000000000E+00
     -6.88374569815994E-19   1.11443420063079E-38  -6.88374569815994E-19  -8.99190109726342E-15   1.80000000000000E+00
      1.80000000000000E+00   0.00000000000000E+00   0.00000000000000E+00   1.22607511850445E-11  -1.09637170759470E-55
      1.22607511850445E-11   3.52890987280474E-15
      4.00000000000000E-01
      0.00000000000000E+00   0.00000000000000E+00   0.00000000000000E+00   0.00000000000000E+00  -2.65546866214870E-10
     -8.94090087245778E-39  -2.65546866214870E-10   1.66035822463785E-15   7.20000000000000E-01   7.20000000000000E-01
      0.00000000000000E+00   0.00000000000000E+00   0.00000000000000E+00   0.00000000000000E+00   0.00000000000000E+00
      4.00183537634759E-15  -1.35000000000000E+00  -1.35000000000000E+00   0.00000000000000E+00   0.00000000000000E+00
     -5.78473252843032E-12   8.94090087245778E-39  -5.78473252843032E-12  -9.14637177711397E-15   1.80000000000000E+00
      1.80000000000000E+00   0.00000000000000E+00   0.00000000000000E+00   2.71331598743300E-10   3.76409250767169E-56
      2.71331598743300E-10   3.48417817612853E-15
      4.50000000000000E-01
      0.00000000000000E+00   0.00000000000000E+00   0.00000000000000E+00   0.00000000000000E+00  -5.99343838846057E-09
     -9.77554728443311E-39  -5.99343838846057E-09   1.62555103154131E-15   8.10000000000000E-01   8.10000000000000E-01
      0.00000000000000E+00   0.00000000000000E+00   0.00000000000000E+00   0.00000000000000E+00   0.00000000000000E+00
      4.25492848916602E-15  -1.35000000000000E+00  -1.35000000000000E+00   0.00000000000000E+00   0.00000000000000E+00
     -7.46767454494078E-18   9.77554728443311E-39  -7.46767454494078E-18  -9.31899232080135E-15   1.80000000000000E+00
      1.80000000000000E+00   0.00000000000000E+00   0.00000000000000E+00   5.99343839592825E-09   2.47266910577222E-56
      5.99343839592825E-09   3.43851280009401E-15
      5.00000000000000E-01
      0.00000000000000E+00   0.00000000000000E+00   0.00000000000000E+00   0.00000000000000E+00  -1.14877805247241E-07
     -3.19204403113749E-39  -1.14877805247241E-07   1.59387762909175E-15   9.00000000000000E-01   9.00000000000000E-01
      0.00000000000000E+00   0.00000000000000E+00   0.00000000000000E+00   0.00000000000000E+00   0.00000000000000E+00
      4.55385742894266E-15  -1.35000000000000E+00  -1.35000000000000E+00   0.00000000000000E+00   0.00000000000000E+00
      1.09218744172701E-18   3.19204403113749E-39   1.09218744172701E-18  -9.53973268699879E-15   1.80000000000000E+00
      1.80000000000000E+00   0.00000000000000E+00   0.00000000000000E+00   1.14877805246149E-07   4.86548181023893E-57
      1.14877805246149E-07   3.39199762896439E-15
      5.50000000000000E-01
      0.00000000000000E+00   0.00000000000000E+00   0.00000000000000E+00   0.00000000000000E+00  -1.02534864773214E-06
     -1.01143121115033E-38  -1.02534864773214E-06   1.56440147625638E-15   9.90000000000000E-01   9.90000000000000E-01
      0.00000000000000E+00   0.00000000000000E+00   0.00000000000000E+00   0.00000000000000E+00   0.00000000000000E+00
      5.00180421965820E-15  -1.35000000000000E+00  -1.35000000000000E+00   0.00000000000000E+00   0.00000000000000E+00
     -1.28047050354603E-18   1.01143121115033E-38  -1.28047050354603E-18  -9.91078906607956E-15   1.80000000000000E+00
      1.80000000000000E+00   0.00000000000000E+00   0.00000000000000E+00   1.02534864773342E-06  -3.63638366213593E-56
      1.02534864773342E-06   3.34458337016498E-15
      6.00000000000000E-01
      0.00000000000000E+00   0.00000000000000E+00   0.00000000000000E+00   0.00000000000000E+00  -3.79363000380591E-06
     -3.23020082635611E-39  -3.79363000380591E-06   1.53630817759834E-15   1.08000000000000E+00   1.08000000000000E+00
      0.00000000000000E+00   0.00000000000000E+00   0.00000000000000E+00   0.00000000000000E+00   0.00000000000000E+00
      5.58602365542786E-15  -1.35000000000000E+00  -1.35000000000000E+00   0.00000000000000E+00   0.00000000000000E+00
     -1.09457661967005E-17   3.23020082635611E-39  -1.09457661967005E-17  -1.04184187645450E-14   1.80000000000000E+00
      1.80000000000000E+00   0.00000000000000E+00   0.00000000000000E+00   3.79363000381686E-06  -2.62818381770321E-56
      3.79363000381686E-06   3.29608693151880E-15
      6.50000000000000E-01
      0.00000000000000E+00   0.00000000000000E+00   0.00000000000000E+00   0.00000000000000E+00  -8.81328159148608E-06
     -6.92899423275521E-39  -8.81328159148608E-06   1.50913560012802E-15   1.17000000000000E+00   1.17000000000000E+00
      0.00000000000000E+00   0.00000000000000E+00   0.00000000000000E+00   0.00000000000000E+00   0.00000000000000E+00
      6.23374343679204E-15  -1.35000000000000E+00  -1.35000000000000E+00   0.00000000000000E+00   0.00000000000000E+00
      2.74429083374400E-17   6.92899423275521E-39   2.74429083374400E-17  -1.09893326061816E-14   1.80000000000000E+00
      1.80000000000000E+00   0.00000000000000E+00   0.00000000000000E+00   8.81328159145864E-06  -3.22972032024756E-56
      8.81328159145864E-06   3.24645356926150E-15
      7.00000000000000E-01
      0.00000000000000E+00   0.00000000000000E+00   0.00000000000000E+00   0.00000000000000E+00  -1.61074082205330E-05
     -1.13986063774531E-38  -1.61074082205330E-05   1.48264062055688E-15   1.26000000000000E+00   1.26000000000000E+00
      0.00000000000000E+00   0.00000000000000E+00   0.00000000000000E+00   0.00000000000000E+00   0.00000000000000E+00
      6.91494454441746E-15  -1.35000000000000E+00  -1.35000000000000E+00   0.00000000000000E+00   0.00000000000000E+00
     -5.00090217715128E-18   1.13986063774531E-38  -5.00090217715128E-18  -1.15933464354346E-14   1.80000000000000E+00
      1.80000000000000E+00   0.00000000000000E+00   0.00000000000000E+00   1.61074082205380E-05   8.12321385060679E-57
      1.61074082205380E-05   3.19576127046026E-15
      7.50000000000000E-01
      0.00000000000000E+00   0.00000000000000E+00   0.00000000000000E+00   0.00000000000000E+00  -2.55967253168368E-05
     -4.39326164541393E-39  -2.55967253168368E-05   1.45667346163319E-15   1.35000000000000E+00   1.35000000000000E+00
      0.00000000000000E+00   0.00000000000000E+00   0.00000000000000E+00   0.00000000000000E+00   0.00000000000000E+00
      7.61790277806487E-15  -1.35000000000000E+00  -1.35000000000000E+00   0.00000000000000E+00   0.00000000000000E+00
     -2.12038101201019E-18   4.39326164541393E-39  -2.12038101201019E-18  -1.22187092646306E-14   1.80000000000000E+00
      1.80000000000000E+00   0.00000000000000E+00   0.00000000000000E+00   2.55967253168390E-05   2.42172298672740E-56
      2.55967253168390E-05   3.14413302493251E-15
      8.00000000000000E-01
      0.00000000000000E+00   0.00000000000000E+00   0.00000000000000E+00   0.00000000000000E+00  -3.71726173573652E-05
     -1.12238931381544E-38  -3.71726173573652E-05   1.43113235111778E-15   1.44000000000000E+00   1.44000000000000E+00
      0.00000000000000E+00   0.00000000000000E+00   0.00000000000000E+00   0.00000000000000E+00   0.00000000000000E+00
      8.33718930567558E-15  -1.35000000000000E+00  -1.35000000000000E+00   0.00000000000000E+00   0.00000000000000E+00
     -2.25064038836932E-18   1.12238931381544E-38  -2.25064038836932E-18  -1.28599517681350E-14   1.80000000000000E+00
      1.80000000000000E+00   0.00000000000000E+00   0.00000000000000E+00   3.71726173573675E-05   3.52403738823927E-57
      3.71726173573675E-05   3.09163011134170E-15
      8.50000000000000E-01
      0.00000000000000E+00   0.00000000000000E+00   0.00000000000000E+00   0.00000000000000E+00  -5.07189014566106E-05
     -7.41476785393508E-39  -5.07189014566106E-05   1.40594397891294E-15   1.53000000000000E+00   1.53000000000000E+00
      0.00000000000000E+00   0.00000000000000E+00   0.00000000000000E+00   0.00000000000000E+00   0.00000000000000E+00
      9.06999395140134E-15  -1.35000000000000E+00  -1.35000000000000E+00   0.00000000000000E+00   0.00000000000000E+00
     -7.19138391043582E-18   7.41476785393508E-39  -7.19138391043582E-18  -1.35141560603634E-14   1.80000000000000E+00
      1.80000000000000E+00   0.00000000000000E+00   0.00000000000000E+00   5.07189014566179E-05   3.02377863797287E-58
      5.07189014566179E-05   3.03821813004912E-15
      9.00000000000000E-01
      0.00000000000000E+00   0.00000000000000E+00   0.00000000000000E+00   0.00000000000000E+00  -6.61195413831143E-05
     -6.65350234534413E-39  -6.61195413831143E-05   1.38105338328220E-15   1.62000000000000E+00   1.62000000000000E+00
      0.00000000000000E+00   0.00000000000000E+00   0.00000000000000E+00   0.00000000000000E+00   0.00000000000000E+00
      9.81471249048255E-15  -1.35000000000000E+00  -1.35000000000000E+00   0.00000000000000E+00   0.00000000000000E+00
      1.30348798671671E-17   6.65350234534414E-39   1.30348798671671E-17  -1.41796156637769E-14   1.80000000000000E+00
      1.80000000000000E+00   0.00000000000000E+00   0.00000000000000E+00   6.61195413831012E-05  -4.09038919211728E-56
      6.61195413831012E-05   2.98384979001216E-15
      9.50000000000000E-01
      0.00000000000000E+00   0.00000000000000E+00   0.00000000000000E+00   0.00000000000000E+00  -8.32617356894954E-05
     -9.34598931613530E-39  -8.32617356894954E-05   1.35641809135223E-15   1.71000000000000E+00   1.71000000000000E+00
      0.00000000000000E+00   0.00000000000000E+00   0.00000000000000E+00   0.00000000000000E+00   0.00000000000000E+00
      1.05704100264784E-14  -1.35000000000000E+00  -1.35000000000000E+00   0.00000000000000E+00   0.00000000000000E+00
      7.76086592980644E-18   9.34598931613530E-39   7.76086592980644E-18  -1.48552907095688E-14   1.80000000000000E+00
      1.80000000000000E+00   0.00000000000000E+00   0.00000000000000E+00   8.32617356894874E-05  -1.45200448660873E-57
      8.32617356894874E-05   2.92846259173818E-15
      1.00000000000000E+00
      0.00000000000000E+00   0.00000000000000E+00   0.00000000000000E+00   0.00000000000000E+00  -1.02037280046244E-04
     -8.02920371154008E-39  -1.02037280046244E-04   1.33200451151649E-15   1.80000000000000E+00   1.80000000000000E+00
      0.00000000000000E+00   0.00000000000000E+00   0.00000000000000E+00   0.00000000000000E+00   0.00000000000000E+00
      1.13366910298145E-14  -1.35000000000000E+00  -1.35000000000000E+00   0.00000000000000E+00   0.00000000000000E+00
      1.80653109350593E-15   8.02920371154008E-39   1.80653109350593E-15  -1.55405579108832E-14   1.80000000000000E+00
      1.80000000000000E+00   0.00000000000000E+00   0.00000000000000E+00   1.02037280044438E-04   2.55070528475976E-56
      1.02037280044438E-04   2.87186236955228E-15
}
