DF-ISE text

Info {
  version   = 1.0
  type      = xyplot
  datasets  = [
    "time"
    "source OuterVoltage" "source InnerVoltage" "source QuasiFermiPotential" "source DisplacementCurrent" "source eCurrent"
    "source hCurrent" "source TotalCurrent" "source Charge" "gate OuterVoltage" "gate InnerVoltage"
    "gate QuasiFermiPotential" "gate DisplacementCurrent" "gate eCurrent" "gate hCurrent" "gate TotalCurrent"
    "gate Charge" "substrate OuterVoltage" "substrate InnerVoltage" "substrate QuasiFermiPotential" "substrate DisplacementCurrent"
    "substrate eCurrent" "substrate hCurrent" "substrate TotalCurrent" "substrate Charge" "drain OuterVoltage"
    "drain InnerVoltage" "drain QuasiFermiPotential" "drain DisplacementCurrent" "drain eCurrent" "drain hCurrent"
    "drain TotalCurrent" "drain Charge" ]
  functions = [
    Time
    OuterVoltage InnerVoltage QuasiFermiPotential DisplacementCurrent eCurrent
    hCurrent TotalCurrent Charge OuterVoltage InnerVoltage
    QuasiFermiPotential DisplacementCurrent eCurrent hCurrent TotalCurrent
    Charge OuterVoltage InnerVoltage QuasiFermiPotential DisplacementCurrent
    eCurrent hCurrent TotalCurrent Charge OuterVoltage
    InnerVoltage QuasiFermiPotential DisplacementCurrent eCurrent hCurrent
    TotalCurrent Charge ]
}

Data {
      5.00000000000000E-02
      0.00000000000000E+00   0.00000000000000E+00   0.00000000000000E+00   0.00000000000000E+00  -1.57056379408479E-14
      2.00612994421559E-38  -1.57056379408479E-14   2.02645894478764E-15   9.00000000000000E-02   9.00000000000000E-02
      0.00000000000000E+00   0.00000000000000E+00   0.00000000000000E+00   0.00000000000000E+00   0.00000000000000E+00
      9.06939850939896E-17  -1.35000000000000E+00  -1.35000000000000E+00   0.00000000000000E+00   0.00000000000000E+00
      1.57048063224676E-14  -2.00612994421560E-38   1.57048063224676E-14  -5.87234810676219E-15   1.80000000000000E+00
      1.80000000000000E+00   0.00000000000000E+00   0.00000000000000E+00   8.31618380379829E-19   6.59622297055872E-53
      8.31618380379829E-19   3.75519517688056E-15
      1.00000000000000E-01
      0.00000000000000E+00   0.00000000000000E+00   0.00000000000000E+00   0.00000000000000E+00   8.73184566854514E-15
      4.42186558053798E-38   8.73184566854514E-15   1.96867368416076E-15   1.80000000000000E-01   1.80000000000000E-01
      0.00000000000000E+00   0.00000000000000E+00   0.00000000000000E+00   0.00000000000000E+00   0.00000000000000E+00
      2.27073753160453E-16  -1.35000000000000E+00  -1.35000000000000E+00   0.00000000000000E+00   0.00000000000000E+00
     -8.74291377323681E-15  -4.42186558053798E-38  -8.74291377323681E-15  -5.91164973409408E-15   1.80000000000000E+00
      1.80000000000000E+00   0.00000000000000E+00   0.00000000000000E+00   1.10681046916761E-17   1.03194069060874E-54
      1.10681046916761E-17   3.71590229677288E-15
      1.50000000000000E-01
      0.00000000000000E+00   0.00000000000000E+00   0.00000000000000E+00   0.00000000000000E+00   6.59623727639421E-14
      3.70490711517363E-38   6.59623727639421E-14   1.91029060278903E-15   2.70000000000000E-01   2.70000000000000E-01
      0.00000000000000E+00   0.00000000000000E+00   0.00000000000000E+00   0.00000000000000E+00   0.00000000000000E+00
      3.64333134783785E-16  -1.35000000000000E+00  -1.35000000000000E+00   0.00000000000000E+00   0.00000000000000E+00
     -6.61936487748582E-14  -3.70490711517363E-38  -6.61936487748582E-14  -5.95101137891448E-15   1.80000000000000E+00
      1.80000000000000E+00   0.00000000000000E+00   0.00000000000000E+00   2.31276010916024E-16  -3.02580827252661E-55
      2.31276010916024E-16   3.67638764134166E-15
      2.00000000000000E-01
      0.00000000000000E+00   0.00000000000000E+00   0.00000000000000E+00   0.00000000000000E+00  -7.96809318441992E-14
      3.37982294287703E-38  -7.96809318441992E-14   1.85278146365323E-15   3.60000000000000E-01   3.60000000000000E-01
      0.00000000000000E+00   0.00000000000000E+00   0.00000000000000E+00   0.00000000000000E+00   0.00000000000000E+00
      5.03813937732553E-16  -1.35000000000000E+00  -1.35000000000000E+00   0.00000000000000E+00   0.00000000000000E+00
      7.46708983837043E-14  -3.37982294287703E-38   7.46708983837043E-14  -5.99319939683610E-15   1.80000000000000E+00
      1.80000000000000E+00   0.00000000000000E+00   0.00000000000000E+00   5.01003346049487E-15   5.87444224298862E-55
      5.01003346049487E-15   3.63660399545032E-15
      2.50000000000000E-01
      0.00000000000000E+00   0.00000000000000E+00   0.00000000000000E+00   0.00000000000000E+00  -1.09580437677401E-13
      4.55639846610881E-38  -1.09580437677401E-13   1.79948223934827E-15   4.50000000000000E-01   4.50000000000000E-01
      0.00000000000000E+00   0.00000000000000E+00   0.00000000000000E+00   0.00000000000000E+00   0.00000000000000E+00
      6.48733202010080E-16  -1.35000000000000E+00  -1.35000000000000E+00   0.00000000000000E+00   0.00000000000000E+00
      5.67238205054218E-19  -4.55639846610881E-38   5.67238205054218E-19  -6.04466716820041E-15   1.80000000000000E+00
      1.80000000000000E+00   0.00000000000000E+00   0.00000000000000E+00   1.09579870439196E-13   3.37073869326139E-55
      1.09579870439196E-13   3.59645172684206E-15
      3.00000000000000E-01
      0.00000000000000E+00   0.00000000000000E+00   0.00000000000000E+00   0.00000000000000E+00  -2.41389902548719E-12
      3.65275436436414E-38  -2.41389902548719E-12   1.75373557428641E-15   5.40000000000000E-01   5.40000000000000E-01
      0.00000000000000E+00   0.00000000000000E+00   0.00000000000000E+00   0.00000000000000E+00   0.00000000000000E+00
      8.02506278683555E-16  -1.35000000000000E+00  -1.35000000000000E+00   0.00000000000000E+00   0.00000000000000E+00
     -2.13182925285748E-15  -3.65275436436414E-38  -2.13182925285748E-15  -6.11200549901654E-15   1.80000000000000E+00
      1.80000000000000E+00   0.00000000000000E+00   0.00000000000000E+00   2.41603085474004E-12   4.31187136119643E-55
      2.41603085474004E-12   3.55576364604658E-15
      3.50000000000000E-01
      0.00000000000000E+00   0.00000000000000E+00   0.00000000000000E+00   0.00000000000000E+00  -5.36600512887360E-11
      3.94651231470907E-38  -5.36600512887360E-11   1.71565060192919E-15   6.30000000000000E-01   6.30000000000000E-01
      0.00000000000000E+00   0.00000000000000E+00   0.00000000000000E+00   0.00000000000000E+00   0.00000000000000E+00
      9.66544060544008E-16  -1.35000000000000E+00  -1.35000000000000E+00   0.00000000000000E+00   0.00000000000000E+00
     -4.48182138629212E-19  -3.94651231470907E-38  -4.48182138629212E-19  -6.19651205557649E-15   1.80000000000000E+00
      1.80000000000000E+00   0.00000000000000E+00   0.00000000000000E+00   5.36600517369181E-11   1.84593529457368E-55
      5.36600517369181E-11   3.51431739310328E-15
      4.00000000000000E-01
      0.00000000000000E+00   0.00000000000000E+00   0.00000000000000E+00   0.00000000000000E+00  -1.19759254360606E-09
      3.78391357176620E-38  -1.19759254360606E-09   1.68350569557654E-15   7.20000000000000E-01   7.20000000000000E-01
      0.00000000000000E+00   0.00000000000000E+00   0.00000000000000E+00   0.00000000000000E+00   0.00000000000000E+00
      1.14198139526595E-15  -1.35000000000000E+00  -1.35000000000000E+00   0.00000000000000E+00   0.00000000000000E+00
      5.42271861840608E-18  -3.78391357176621E-38   5.42271861840608E-18  -6.29743445921607E-15   1.80000000000000E+00
      1.80000000000000E+00   0.00000000000000E+00   0.00000000000000E+00   1.19759253818334E-09   4.94063117497185E-55
      1.19759253818334E-09   3.47194736837358E-15
      4.50000000000000E-01
      0.00000000000000E+00   0.00000000000000E+00   0.00000000000000E+00   0.00000000000000E+00  -2.63467649543167E-08
      3.08529479708508E-38  -2.63467649543167E-08   1.65584565323435E-15   8.10000000000000E-01   8.10000000000000E-01
      0.00000000000000E+00   0.00000000000000E+00   0.00000000000000E+00   0.00000000000000E+00   0.00000000000000E+00
      1.33275796163037E-15  -1.35000000000000E+00  -1.35000000000000E+00   0.00000000000000E+00   0.00000000000000E+00
      2.67174394926592E-18  -3.08529479708508E-38   2.67174394926592E-18  -6.41724400466927E-15   1.80000000000000E+00
      1.80000000000000E+00   0.00000000000000E+00   0.00000000000000E+00   2.63467649516450E-08   2.38763184778973E-55
      2.63467649516450E-08   3.42864038980454E-15
      5.00000000000000E-01
      0.00000000000000E+00   0.00000000000000E+00   0.00000000000000E+00   0.00000000000000E+00  -4.69465681087835E-07
      4.20832802030374E-38  -4.69465681087835E-07   1.63150468479117E-15   9.00000000000000E-01   9.00000000000000E-01
      0.00000000000000E+00   0.00000000000000E+00   0.00000000000000E+00   0.00000000000000E+00   0.00000000000000E+00
      1.55199614786426E-15  -1.35000000000000E+00  -1.35000000000000E+00   0.00000000000000E+00   0.00000000000000E+00
     -6.93323394480130E-15  -4.20832802030375E-38  -6.93323394480130E-15  -6.56786108522084E-15   1.80000000000000E+00
      1.80000000000000E+00   0.00000000000000E+00   0.00000000000000E+00   4.69465688021069E-07   2.53304237064448E-55
      4.69465688021069E-07   3.38436025256540E-15
      5.50000000000000E-01
      0.00000000000000E+00   0.00000000000000E+00   0.00000000000000E+00   0.00000000000000E+00  -3.58317349027226E-06
      2.28060607904394E-38  -3.58317349027226E-06   1.60945477005705E-15   9.90000000000000E-01   9.90000000000000E-01
      0.00000000000000E+00   0.00000000000000E+00   0.00000000000000E+00   0.00000000000000E+00   0.00000000000000E+00
      1.82546828640332E-15  -1.35000000000000E+00  -1.35000000000000E+00   0.00000000000000E+00   0.00000000000000E+00
     -8.72557261804759E-16  -2.28060607904394E-38  -8.72557261804759E-16  -6.77341190389430E-15   1.80000000000000E+00
      1.80000000000000E+00   0.00000000000000E+00   0.00000000000000E+00   3.58317349114482E-06   3.72214255505383E-55
      3.58317349114482E-06   3.33848884743394E-15
      6.00000000000000E-01
      0.00000000000000E+00   0.00000000000000E+00   0.00000000000000E+00   0.00000000000000E+00  -1.17545590313543E-05
      2.97638453266035E-38  -1.17545590313543E-05   1.58886534438504E-15   1.08000000000000E+00   1.08000000000000E+00
      0.00000000000000E+00   0.00000000000000E+00   0.00000000000000E+00   0.00000000000000E+00   0.00000000000000E+00
      2.14442004202309E-15  -1.35000000000000E+00  -1.35000000000000E+00   0.00000000000000E+00   0.00000000000000E+00
     -4.48250962705474E-18  -2.97638453266035E-38  -4.48250962705474E-18  -7.02353272044156E-15   1.80000000000000E+00
      1.80000000000000E+00   0.00000000000000E+00   0.00000000000000E+00   1.17545590313587E-05   3.75764147090799E-55
      1.17545590313587E-05   3.29024733403342E-15
      6.50000000000000E-01
      0.00000000000000E+00   0.00000000000000E+00   0.00000000000000E+00   0.00000000000000E+00  -2.50965725022120E-05
      3.80733153805654E-38  -2.50965725022120E-05   1.56927822261884E-15   1.17000000000000E+00   1.17000000000000E+00
      0.00000000000000E+00   0.00000000000000E+00   0.00000000000000E+00   0.00000000000000E+00   0.00000000000000E+00
      2.48986187309758E-15  -1.35000000000000E+00  -1.35000000000000E+00   0.00000000000000E+00   0.00000000000000E+00
      8.25456657757732E-17  -3.80733153805654E-38   8.25456657757732E-17  -7.29869626610746E-15   1.80000000000000E+00
      1.80000000000000E+00   0.00000000000000E+00   0.00000000000000E+00   2.50965725021295E-05   2.36498634583469E-55
      2.50965725021295E-05   3.23955617039104E-15
      7.00000000000000E-01
      0.00000000000000E+00   0.00000000000000E+00   0.00000000000000E+00   0.00000000000000E+00  -4.30007719934417E-05
      5.40712717808351E-38  -4.30007719934417E-05   1.55044106949713E-15   1.26000000000000E+00   1.26000000000000E+00
      0.00000000000000E+00   0.00000000000000E+00   0.00000000000000E+00   0.00000000000000E+00   0.00000000000000E+00
      2.85293595315946E-15  -1.35000000000000E+00  -1.35000000000000E+00   0.00000000000000E+00   0.00000000000000E+00
      1.48699625835280E-18  -5.40712717808352E-38   1.48699625835280E-18  -7.59020597049282E-15   1.80000000000000E+00
      1.80000000000000E+00   0.00000000000000E+00   0.00000000000000E+00   4.30007719934402E-05   3.48242619265083E-55
      4.30007719934402E-05   3.18682894783623E-15
      7.50000000000000E-01
      0.00000000000000E+00   0.00000000000000E+00   0.00000000000000E+00   0.00000000000000E+00  -6.48452882393943E-05
      4.04939455978375E-38  -6.48452882393943E-05   1.53219210665296E-15   1.35000000000000E+00   1.35000000000000E+00
      0.00000000000000E+00   0.00000000000000E+00   0.00000000000000E+00   0.00000000000000E+00   0.00000000000000E+00
      3.22920417315303E-15  -1.35000000000000E+00  -1.35000000000000E+00   0.00000000000000E+00   0.00000000000000E+00
      3.09502396484200E-18  -4.04939455978375E-38   3.09502396484200E-18  -7.89406375206047E-15   1.80000000000000E+00
      1.80000000000000E+00   0.00000000000000E+00   0.00000000000000E+00   6.48452882393912E-05   2.98930647570315E-55
      6.48452882393912E-05   3.13266747225447E-15
      8.00000000000000E-01
      0.00000000000000E+00   0.00000000000000E+00   0.00000000000000E+00   0.00000000000000E+00  -9.00966690123901E-05
      3.74103635675488E-38  -9.00966690123901E-05   1.51441866746860E-15   1.44000000000000E+00   1.44000000000000E+00
      0.00000000000000E+00   0.00000000000000E+00   0.00000000000000E+00   0.00000000000000E+00   0.00000000000000E+00
      3.61605451499610E-15  -1.35000000000000E+00  -1.35000000000000E+00   0.00000000000000E+00   0.00000000000000E+00
      1.19246959391259E-18  -3.74103635675488E-38   1.19246959391259E-18  -8.20809264868443E-15   1.80000000000000E+00
      1.80000000000000E+00   0.00000000000000E+00   0.00000000000000E+00   9.00966690123889E-05   2.74373741464750E-55
      9.00966690123889E-05   3.07761946621973E-15
      8.50000000000000E-01
      0.00000000000000E+00   0.00000000000000E+00   0.00000000000000E+00   0.00000000000000E+00  -1.18308618887079E-04
      4.01558728847625E-38  -1.18308618887079E-04   1.49703839048349E-15   1.53000000000000E+00   1.53000000000000E+00
      0.00000000000000E+00   0.00000000000000E+00   0.00000000000000E+00   0.00000000000000E+00   0.00000000000000E+00
      4.01180101422389E-15  -1.35000000000000E+00  -1.35000000000000E+00   0.00000000000000E+00   0.00000000000000E+00
      1.22445142157586E-19  -4.01558728847625E-38   1.22445142157586E-19  -8.53091532587018E-15   1.80000000000000E+00
      1.80000000000000E+00   0.00000000000000E+00   0.00000000000000E+00   1.18308618887079E-04   2.85471550403057E-55
      1.18308618887079E-04   3.02207592116280E-15
      9.00000000000000E-01
      0.00000000000000E+00   0.00000000000000E+00   0.00000000000000E+00   0.00000000000000E+00  -1.49105765539135E-04
      4.57051396385579E-38  -1.49105765539135E-04   1.47998896656425E-15   1.62000000000000E+00   1.62000000000000E+00
      0.00000000000000E+00   0.00000000000000E+00   0.00000000000000E+00   0.00000000000000E+00   0.00000000000000E+00
      4.41549637318704E-15  -1.35000000000000E+00  -1.35000000000000E+00   0.00000000000000E+00   0.00000000000000E+00
     -3.11669080371104E-18  -4.57051396385579E-38  -3.11669080371104E-18  -8.86175683443383E-15   1.80000000000000E+00
      1.80000000000000E+00   0.00000000000000E+00   0.00000000000000E+00   1.49105765539138E-04   4.30964960201253E-55
      1.49105765539138E-04   2.96627149468253E-15
      9.50000000000000E-01
      0.00000000000000E+00   0.00000000000000E+00   0.00000000000000E+00   0.00000000000000E+00  -1.82175375547277E-04
      3.95795924802508E-38  -1.82175375547277E-04   1.46322208425927E-15   1.71000000000000E+00   1.71000000000000E+00
      0.00000000000000E+00   0.00000000000000E+00   0.00000000000000E+00   0.00000000000000E+00   0.00000000000000E+00
      4.82628217752247E-15  -1.35000000000000E+00  -1.35000000000000E+00   0.00000000000000E+00   0.00000000000000E+00
     -1.22045221292349E-17  -3.95795924802508E-38  -1.22045221292349E-17  -9.19983376258866E-15   1.80000000000000E+00
      1.80000000000000E+00   0.00000000000000E+00   0.00000000000000E+00   1.82175375547289E-04   3.93519023553605E-55
      1.82175375547289E-04   2.91032950080693E-15
      1.00000000000000E+00
      0.00000000000000E+00   0.00000000000000E+00   0.00000000000000E+00   0.00000000000000E+00  -2.17255797010338E-04
      3.65044745993365E-38  -2.17255797010338E-04   1.44669940760709E-15   1.80000000000000E+00   1.80000000000000E+00
      0.00000000000000E+00   0.00000000000000E+00   0.00000000000000E+00   0.00000000000000E+00   0.00000000000000E+00
      5.24347983524409E-15  -1.35000000000000E+00  -1.35000000000000E+00   0.00000000000000E+00   0.00000000000000E+00
      1.98135271423614E-17  -3.65044745993365E-38   1.98135271423614E-17  -9.54457502903806E-15   1.80000000000000E+00
      1.80000000000000E+00   0.00000000000000E+00   0.00000000000000E+00   2.17255797010318E-04   4.72728138335761E-55
      2.17255797010318E-04   2.85439578618688E-15
}
