DF-ISE text

Info {
  version   = 1.0
  type      = xyplot
  datasets  = [
    "time"
    "source OuterVoltage" "source InnerVoltage" "source QuasiFermiPotential" "source DisplacementCurrent" "source eCurrent"
    "source hCurrent" "source TotalCurrent" "source Charge" "gate OuterVoltage" "gate InnerVoltage"
    "gate QuasiFermiPotential" "gate DisplacementCurrent" "gate eCurrent" "gate hCurrent" "gate TotalCurrent"
    "gate Charge" "substrate OuterVoltage" "substrate InnerVoltage" "substrate QuasiFermiPotential" "substrate DisplacementCurrent"
    "substrate eCurrent" "substrate hCurrent" "substrate TotalCurrent" "substrate Charge" "drain OuterVoltage"
    "drain InnerVoltage" "drain QuasiFermiPotential" "drain DisplacementCurrent" "drain eCurrent" "drain hCurrent"
    "drain TotalCurrent" "drain Charge" ]
  functions = [
    Time
    OuterVoltage InnerVoltage QuasiFermiPotential DisplacementCurrent eCurrent
    hCurrent TotalCurrent Charge OuterVoltage InnerVoltage
    QuasiFermiPotential DisplacementCurrent eCurrent hCurrent TotalCurrent
    Charge OuterVoltage InnerVoltage QuasiFermiPotential DisplacementCurrent
    eCurrent hCurrent TotalCurrent Charge OuterVoltage
    InnerVoltage QuasiFermiPotential DisplacementCurrent eCurrent hCurrent
    TotalCurrent Charge ]
}

Data {
      5.00000000000000E-02
      0.00000000000000E+00   0.00000000000000E+00   0.00000000000000E+00   0.00000000000000E+00  -1.13254490528329E-05
     -2.86045996451264E-25  -1.13254490528329E-05   9.26045950789514E-16   4.50000000000000E-01   4.50000000000000E-01
      0.00000000000000E+00   0.00000000000000E+00   0.00000000000000E+00   0.00000000000000E+00   0.00000000000000E+00
     -4.79196996624334E-17   0.00000000000000E+00   0.00000000000000E+00   0.00000000000000E+00   0.00000000000000E+00
      2.41958301595157E-15   3.12383633782440E-25   2.41958301626395E-15  -1.93170684427728E-15   9.00000000000000E-02
      9.00000000000000E-02   0.00000000000000E+00   0.00000000000000E+00   1.13254490504134E-05  -2.63376373311762E-26
      1.13254490504134E-05   1.05358059315020E-15
      1.00000000000000E-01
      0.00000000000000E+00   0.00000000000000E+00   0.00000000000000E+00   0.00000000000000E+00  -1.73376817511864E-05
     -2.60120131034481E-25  -1.73376817511864E-05   9.20704905684571E-16   4.50000000000000E-01   4.50000000000000E-01
      0.00000000000000E+00   0.00000000000000E+00   0.00000000000000E+00   0.00000000000000E+00   0.00000000000000E+00
     -1.12685963361446E-16   0.00000000000000E+00   0.00000000000000E+00   0.00000000000000E+00   0.00000000000000E+00
      9.05754576034358E-18   2.62930361178111E-25   9.05754602327395E-18  -1.98456185422231E-15   1.80000000000000E-01
      1.80000000000000E-01   0.00000000000000E+00   0.00000000000000E+00   1.73376817511774E-05  -2.81023014363016E-27
      1.73376817511774E-05   1.17654291189919E-15
      1.50000000000000E-01
      0.00000000000000E+00   0.00000000000000E+00   0.00000000000000E+00   0.00000000000000E+00  -2.34864739655340E-05
     -2.88333303114914E-25  -2.34864739655340E-05   9.15943768711857E-16   4.50000000000000E-01   4.50000000000000E-01
      0.00000000000000E+00   0.00000000000000E+00   0.00000000000000E+00   0.00000000000000E+00   0.00000000000000E+00
     -1.73241208961028E-16   0.00000000000000E+00   0.00000000000000E+00   0.00000000000000E+00   0.00000000000000E+00
      7.99403166628878E-18   2.88663291404319E-25   7.99403195495207E-18  -2.03901953947518E-15   2.70000000000000E-01
      2.70000000000000E-01   0.00000000000000E+00   0.00000000000000E+00   2.34864739655260E-05  -3.29988289405032E-28
      2.34864739655260E-05   1.29631697972435E-15
      2.00000000000000E-01
      0.00000000000000E+00   0.00000000000000E+00   0.00000000000000E+00   0.00000000000000E+00  -2.98563550715018E-05
     -2.62228179980374E-25  -2.98563550715018E-05   9.11583829688723E-16   4.50000000000000E-01   4.50000000000000E-01
      0.00000000000000E+00   0.00000000000000E+00   0.00000000000000E+00   0.00000000000000E+00   0.00000000000000E+00
     -2.31382240156488E-16   0.00000000000000E+00   0.00000000000000E+00   0.00000000000000E+00   0.00000000000000E+00
      1.18458747052358E-18   2.62271613947767E-25   1.18458773279520E-18  -2.09274535532606E-15   3.60000000000000E-01
      3.60000000000000E-01   0.00000000000000E+00   0.00000000000000E+00   2.98563550715006E-05  -4.34339673936923E-29
      2.98563550715006E-05   1.41254376579383E-15
      2.50000000000000E-01
      0.00000000000000E+00   0.00000000000000E+00   0.00000000000000E+00   0.00000000000000E+00  -3.65086673801476E-05
     -2.72641709215489E-25  -3.65086673801476E-05   9.07512804399709E-16   4.50000000000000E-01   4.50000000000000E-01
      0.00000000000000E+00   0.00000000000000E+00   0.00000000000000E+00   0.00000000000000E+00   0.00000000000000E+00
     -2.87703082062415E-16   0.00000000000000E+00   0.00000000000000E+00   0.00000000000000E+00   0.00000000000000E+00
     -1.25390225502628E-20   2.72646000327538E-25  -1.25387499042625E-20  -2.14532338408586E-15   4.50000000000000E-01
      4.50000000000000E-01   0.00000000000000E+00   0.00000000000000E+00   3.65086673801476E-05  -4.29111204950940E-30
      3.65086673801476E-05   1.52551366174857E-15
      3.00000000000000E-01
      0.00000000000000E+00   0.00000000000000E+00   0.00000000000000E+00   0.00000000000000E+00  -4.34400124455922E-05
     -2.78252450877046E-25  -4.34400124455922E-05   9.03674080835978E-16   4.50000000000000E-01   4.50000000000000E-01
      0.00000000000000E+00   0.00000000000000E+00   0.00000000000000E+00   0.00000000000000E+00   0.00000000000000E+00
     -3.42391867176954E-16   0.00000000000000E+00   0.00000000000000E+00   0.00000000000000E+00   0.00000000000000E+00
      1.84786694690602E-18   2.78252645182568E-25   1.84786722515866E-18  -2.19682181111528E-15   5.40000000000000E-01
      5.40000000000000E-01   0.00000000000000E+00   0.00000000000000E+00   4.34400124455903E-05  -1.94305521683628E-31
      4.34400124455903E-05   1.63553959745625E-15
      3.50000000000000E-01
      0.00000000000000E+00   0.00000000000000E+00   0.00000000000000E+00   0.00000000000000E+00  -5.05675559556979E-05
     -2.97976911136497E-25  -5.05675559556979E-05   9.00044367937614E-16   4.50000000000000E-01   4.50000000000000E-01
      0.00000000000000E+00   0.00000000000000E+00   0.00000000000000E+00   0.00000000000000E+00   0.00000000000000E+00
     -3.95472175304585E-16   0.00000000000000E+00   0.00000000000000E+00   0.00000000000000E+00   0.00000000000000E+00
      1.61839723310208E-18   2.97976910692094E-25   1.61839753107899E-18  -2.24735852147201E-15   6.30000000000000E-01
      6.30000000000000E-01   0.00000000000000E+00   0.00000000000000E+00   5.05675559556963E-05   4.44402760974499E-34
      5.05675559556963E-05   1.74278632883898E-15
      4.00000000000000E-01
      0.00000000000000E+00   0.00000000000000E+00   0.00000000000000E+00   0.00000000000000E+00  -5.77607501026975E-05
     -2.78704769664769E-25  -5.77607501026975E-05   8.96621278616650E-16   4.50000000000000E-01   4.50000000000000E-01
      0.00000000000000E+00   0.00000000000000E+00   0.00000000000000E+00   0.00000000000000E+00   0.00000000000000E+00
     -4.46851293434312E-16   0.00000000000000E+00   0.00000000000000E+00   0.00000000000000E+00   0.00000000000000E+00
      1.23355847735202E-19   2.78704775504397E-25   1.23356126439977E-19  -2.29700861503400E-15   7.20000000000000E-01
      7.20000000000000E-01   0.00000000000000E+00   0.00000000000000E+00   5.77607501026974E-05  -5.83962736431416E-33
      5.77607501026974E-05   1.84723862985166E-15
      4.50000000000000E-01
      0.00000000000000E+00   0.00000000000000E+00   0.00000000000000E+00   0.00000000000000E+00  -6.48835176288812E-05
     -2.68388016312261E-25  -6.48835176288812E-05   8.93400105115280E-16   4.50000000000000E-01   4.50000000000000E-01
      0.00000000000000E+00   0.00000000000000E+00   0.00000000000000E+00   0.00000000000000E+00   0.00000000000000E+00
     -4.96582228719501E-16   0.00000000000000E+00   0.00000000000000E+00   0.00000000000000E+00   0.00000000000000E+00
     -1.13345201620402E-18   2.68388015988519E-25  -1.13345174781600E-18  -2.34581166378577E-15   8.10000000000000E-01
      8.10000000000000E-01   0.00000000000000E+00   0.00000000000000E+00   6.48835176288824E-05   3.23742371014339E-34
      6.48835176288824E-05   1.94899378738999E-15
      5.00000000000000E-01
      0.00000000000000E+00   0.00000000000000E+00   0.00000000000000E+00   0.00000000000000E+00  -7.18997594175857E-05
     -2.82050458463052E-25  -7.18997594175857E-05   8.90362169721572E-16   4.50000000000000E-01   4.50000000000000E-01
      0.00000000000000E+00   0.00000000000000E+00   0.00000000000000E+00   0.00000000000000E+00   0.00000000000000E+00
     -5.45017670638568E-16   0.00000000000000E+00   0.00000000000000E+00   0.00000000000000E+00   0.00000000000000E+00
     -1.19140684710116E-18   2.82050458419336E-25  -1.19140656505070E-18  -2.39380630528975E-15   9.00000000000000E-01
      9.00000000000000E-01   0.00000000000000E+00   0.00000000000000E+00   7.18997594175869E-05   4.37152261074394E-35
      7.18997594175869E-05   2.04846180620675E-15
      5.50000000000000E-01
      0.00000000000000E+00   0.00000000000000E+00   0.00000000000000E+00   0.00000000000000E+00  -7.88667495700845E-05
     -2.60146405957038E-25  -7.88667495700845E-05   8.87463785333744E-16   4.50000000000000E-01   4.50000000000000E-01
      0.00000000000000E+00   0.00000000000000E+00   0.00000000000000E+00   0.00000000000000E+00   0.00000000000000E+00
     -5.92553888491163E-16   0.00000000000000E+00   0.00000000000000E+00   0.00000000000000E+00   0.00000000000000E+00
     -4.64591973590618E-19   2.60146405930347E-25  -4.64591713444212E-19  -2.44105058192045E-15   9.90000000000000E-01
      9.90000000000000E-01   0.00000000000000E+00   0.00000000000000E+00   7.88667495700849E-05   2.66908560262495E-35
      7.88667495700849E-05   2.14614068507787E-15
      6.00000000000000E-01
      0.00000000000000E+00   0.00000000000000E+00   0.00000000000000E+00   0.00000000000000E+00  -8.58783334081475E-05
     -2.89557233579124E-25  -8.58783334081475E-05   8.84661121990096E-16   4.50000000000000E-01   4.50000000000000E-01
      0.00000000000000E+00   0.00000000000000E+00   0.00000000000000E+00   0.00000000000000E+00   0.00000000000000E+00
     -6.39407213892406E-16   0.00000000000000E+00   0.00000000000000E+00   0.00000000000000E+00   0.00000000000000E+00
      1.40732406998261E-19   2.89557233576585E-25   1.40732696555495E-19  -2.48761320351690E-15   1.08000000000000E+00
      1.08000000000000E+00   0.00000000000000E+00   0.00000000000000E+00   8.58783334081474E-05   2.53849145325455E-36
      8.58783334081474E-05   2.24235929541921E-15
      6.50000000000000E-01
      0.00000000000000E+00   0.00000000000000E+00   0.00000000000000E+00   0.00000000000000E+00  -9.29879749922592E-05
     -2.70148017385314E-25  -9.29879749922592E-05   8.81927930316881E-16   4.50000000000000E-01   4.50000000000000E-01
      0.00000000000000E+00   0.00000000000000E+00   0.00000000000000E+00   0.00000000000000E+00   0.00000000000000E+00
     -6.85599327389342E-16   0.00000000000000E+00   0.00000000000000E+00   0.00000000000000E+00   0.00000000000000E+00
      2.17906858134128E-18   2.70148017384510E-25   2.17906885148930E-18  -2.53354691940413E-15   1.17000000000000E+00
      1.17000000000000E+00   0.00000000000000E+00   0.00000000000000E+00   9.29879749922570E-05   8.03473015677044E-37
      9.29879749922570E-05   2.33721831647659E-15
      7.00000000000000E-01
      0.00000000000000E+00   0.00000000000000E+00   0.00000000000000E+00   0.00000000000000E+00  -1.00196883859885E-04
     -2.88868945739980E-25  -1.00196883859885E-04   8.79252187017870E-16   4.50000000000000E-01   4.50000000000000E-01
      0.00000000000000E+00   0.00000000000000E+00   0.00000000000000E+00   0.00000000000000E+00   0.00000000000000E+00
     -7.31026551017757E-16   0.00000000000000E+00   0.00000000000000E+00   0.00000000000000E+00   0.00000000000000E+00
     -3.11871745616771E-18   2.88868945739386E-25  -3.11871716729877E-18  -2.57889311202754E-15   1.26000000000000E+00
      1.26000000000000E+00   0.00000000000000E+00   0.00000000000000E+00   1.00196883859888E-04   5.94473229958723E-37
      1.00196883859888E-04   2.43066747602743E-15
      7.50000000000000E-01
      0.00000000000000E+00   0.00000000000000E+00   0.00000000000000E+00   0.00000000000000E+00  -1.07487165185809E-04
     -2.60152171944140E-25  -1.07487165185809E-04   8.76628962989122E-16   4.50000000000000E-01   4.50000000000000E-01
      0.00000000000000E+00   0.00000000000000E+00   0.00000000000000E+00   0.00000000000000E+00   0.00000000000000E+00
     -7.75510566498698E-16   0.00000000000000E+00   0.00000000000000E+00   0.00000000000000E+00   0.00000000000000E+00
      1.61026615764222E-18   2.60152171944272E-25   1.61026641779439E-18  -2.62369089272987E-15   1.35000000000000E+00
      1.35000000000000E+00   0.00000000000000E+00   0.00000000000000E+00   1.07487165185807E-04  -1.32572208881716E-37
      1.07487165185807E-04   2.52257249623945E-15
      8.00000000000000E-01
      0.00000000000000E+00   0.00000000000000E+00   0.00000000000000E+00   0.00000000000000E+00  -1.14827511099532E-04
     -2.85930840962722E-25  -1.14827511099532E-04   8.74058334986467E-16   4.50000000000000E-01   4.50000000000000E-01
      0.00000000000000E+00   0.00000000000000E+00   0.00000000000000E+00   0.00000000000000E+00   0.00000000000000E+00
     -8.18822411315050E-16   0.00000000000000E+00   0.00000000000000E+00   0.00000000000000E+00   0.00000000000000E+00
      1.30536002498794E-19   2.85930840962613E-25   1.30536288429635E-19  -2.66797329983559E-15   1.44000000000000E+00
      1.44000000000000E+00   0.00000000000000E+00   0.00000000000000E+00   1.14827511099532E-04   1.09605889386279E-37
      1.14827511099532E-04   2.61273737616417E-15
      8.50000000000000E-01
      0.00000000000000E+00   0.00000000000000E+00   0.00000000000000E+00   0.00000000000000E+00  -1.22174922604535E-04
     -2.72602758338342E-25  -1.22174922604535E-04   8.71542393279207E-16   4.50000000000000E-01   4.50000000000000E-01
      0.00000000000000E+00   0.00000000000000E+00   0.00000000000000E+00   0.00000000000000E+00   0.00000000000000E+00
     -8.60784902046893E-16   0.00000000000000E+00   0.00000000000000E+00   0.00000000000000E+00   0.00000000000000E+00
     -1.07452221037040E-18   2.72602758338264E-25  -1.07452193776765E-18  -2.71176374647871E-15   1.53000000000000E+00
      1.53000000000000E+00   0.00000000000000E+00   0.00000000000000E+00   1.22174922604536E-04   7.76912975585028E-38
      1.22174922604536E-04   2.70100625524639E-15
      9.00000000000000E-01
      0.00000000000000E+00   0.00000000000000E+00   0.00000000000000E+00   0.00000000000000E+00  -1.29499452509865E-04
     -2.74311229818707E-25  -1.29499452509865E-04   8.69080887220802E-16   4.50000000000000E-01   4.50000000000000E-01
      0.00000000000000E+00   0.00000000000000E+00   0.00000000000000E+00   0.00000000000000E+00   0.00000000000000E+00
     -9.01450411318132E-16   0.00000000000000E+00   0.00000000000000E+00   0.00000000000000E+00   0.00000000000000E+00
      7.65808772053033E-19   2.74311229818726E-25   7.65809046364263E-19  -2.75507762436031E-15   1.62000000000000E+00
      1.62000000000000E+00   0.00000000000000E+00   0.00000000000000E+00   1.29499452509864E-04  -1.93231382787072E-38
      1.29499452509864E-04   2.78744714845764E-15
      9.50000000000000E-01
      0.00000000000000E+00   0.00000000000000E+00   0.00000000000000E+00   0.00000000000000E+00  -1.36800346223202E-04
     -2.80189710235252E-25  -1.36800346223202E-04   8.66670785389922E-16   4.50000000000000E-01   4.50000000000000E-01
      0.00000000000000E+00   0.00000000000000E+00   0.00000000000000E+00   0.00000000000000E+00   0.00000000000000E+00
     -9.41126160017103E-16   0.00000000000000E+00   0.00000000000000E+00   0.00000000000000E+00   0.00000000000000E+00
     -6.08838996968978E-19   2.80189710235175E-25  -6.08838716779268E-19  -2.79792522780845E-15   1.71000000000000E+00
      1.71000000000000E+00   0.00000000000000E+00   0.00000000000000E+00   1.36800346223203E-04   7.70094894794142E-38
      1.36800346223203E-04   2.87238060243564E-15
      1.00000000000000E+00
      0.00000000000000E+00   0.00000000000000E+00   0.00000000000000E+00   0.00000000000000E+00  -1.44087222060069E-04
     -2.46626053946767E-25  -1.44087222060069E-04   8.64308000440248E-16   4.50000000000000E-01   4.50000000000000E-01
      0.00000000000000E+00   0.00000000000000E+00   0.00000000000000E+00   0.00000000000000E+00   0.00000000000000E+00
     -9.80135519800058E-16   0.00000000000000E+00   0.00000000000000E+00   0.00000000000000E+00   0.00000000000000E+00
     -6.62458083029096E-20   2.46626053946789E-25  -6.62455616768557E-20  -2.84030821725164E-15   1.80000000000000E+00
      1.80000000000000E+00   0.00000000000000E+00   0.00000000000000E+00   1.44087222060069E-04  -2.14652556915759E-38
      1.44087222060069E-04   2.95613573661145E-15
}
