DF-ISE text

Info {
  version   = 1.0
  type      = xyplot
  datasets  = [
    "time"
    "source OuterVoltage" "source InnerVoltage" "source QuasiFermiPotential" "source DisplacementCurrent" "source eCurrent"
    "source hCurrent" "source TotalCurrent" "source Charge" "gate OuterVoltage" "gate InnerVoltage"
    "gate QuasiFermiPotential" "gate DisplacementCurrent" "gate eCurrent" "gate hCurrent" "gate TotalCurrent"
    "gate Charge" "substrate OuterVoltage" "substrate InnerVoltage" "substrate QuasiFermiPotential" "substrate DisplacementCurrent"
    "substrate eCurrent" "substrate hCurrent" "substrate TotalCurrent" "substrate Charge" "drain OuterVoltage"
    "drain InnerVoltage" "drain QuasiFermiPotential" "drain DisplacementCurrent" "drain eCurrent" "drain hCurrent"
    "drain TotalCurrent" "drain Charge" ]
  functions = [
    Time
    OuterVoltage InnerVoltage QuasiFermiPotential DisplacementCurrent eCurrent
    hCurrent TotalCurrent Charge OuterVoltage InnerVoltage
    QuasiFermiPotential DisplacementCurrent eCurrent hCurrent TotalCurrent
    Charge OuterVoltage InnerVoltage QuasiFermiPotential DisplacementCurrent
    eCurrent hCurrent TotalCurrent Charge OuterVoltage
    InnerVoltage QuasiFermiPotential DisplacementCurrent eCurrent hCurrent
    TotalCurrent Charge ]
}

Data {
      5.00000000000000E-02
      0.00000000000000E+00   0.00000000000000E+00   0.00000000000000E+00   0.00000000000000E+00  -3.00109641746824E-05
     -2.01845440997539E-25  -3.00109641746824E-05   5.33322344430627E-16   1.80000000000000E+00   1.80000000000000E+00
      0.00000000000000E+00   0.00000000000000E+00   0.00000000000000E+00   0.00000000000000E+00   0.00000000000000E+00
      1.52855911760540E-14   0.00000000000000E+00   0.00000000000000E+00   0.00000000000000E+00   0.00000000000000E+00
      6.79069145832604E-18   2.26421327407493E-25   6.79069168474737E-18  -1.64393670183099E-14   9.00000000000000E-02
      9.00000000000000E-02   0.00000000000000E+00   0.00000000000000E+00   3.00109641746756E-05  -2.45758864099543E-26
      3.00109641746756E-05   6.20453497825239E-16
      1.00000000000000E-01
      0.00000000000000E+00   0.00000000000000E+00   0.00000000000000E+00   0.00000000000000E+00  -5.59260312051411E-05
     -2.11095821154591E-25  -5.59260312051411E-05   5.34003040585666E-16   1.80000000000000E+00   1.80000000000000E+00
      0.00000000000000E+00   0.00000000000000E+00   0.00000000000000E+00   0.00000000000000E+00   0.00000000000000E+00
      1.47719309934539E-14   0.00000000000000E+00   0.00000000000000E+00   0.00000000000000E+00   0.00000000000000E+00
     -8.93117675946506E-19   2.14750122464495E-25  -8.93117461196383E-19  -1.60118764761935E-14   1.80000000000000E-01
      1.80000000000000E-01   0.00000000000000E+00   0.00000000000000E+00   5.59260312051420E-05  -3.65430130990402E-27
      5.59260312051420E-05   7.05942442153929E-16
      1.50000000000000E-01
      0.00000000000000E+00   0.00000000000000E+00   0.00000000000000E+00   0.00000000000000E+00  -7.79356411840537E-05
     -2.09584406081934E-25  -7.79356411840537E-05   5.34573193308232E-16   1.80000000000000E+00   1.80000000000000E+00
      0.00000000000000E+00   0.00000000000000E+00   0.00000000000000E+00   0.00000000000000E+00   0.00000000000000E+00
      1.42798477274267E-14   0.00000000000000E+00   0.00000000000000E+00   0.00000000000000E+00   0.00000000000000E+00
     -5.40652670669361E-18   2.09930899410997E-25  -5.40652649676271E-18  -1.56041013410401E-14   2.70000000000000E-01
      2.70000000000000E-01   0.00000000000000E+00   0.00000000000000E+00   7.79356411840592E-05  -3.46493329062557E-28
      7.79356411840592E-05   7.89680420305161E-16
      2.00000000000000E-01
      0.00000000000000E+00   0.00000000000000E+00   0.00000000000000E+00   0.00000000000000E+00  -9.62697056578313E-05
     -2.11165343031729E-25  -9.62697056578313E-05   5.35042050574644E-16   1.80000000000000E+00   1.80000000000000E+00
      0.00000000000000E+00   0.00000000000000E+00   0.00000000000000E+00   0.00000000000000E+00   0.00000000000000E+00
      1.38139099526778E-14   0.00000000000000E+00   0.00000000000000E+00   0.00000000000000E+00   0.00000000000000E+00
      2.71747000115894E-16   2.11203658058434E-25   2.71747000327098E-16  -1.52210549786877E-14   3.60000000000000E-01
      3.60000000000000E-01   0.00000000000000E+00   0.00000000000000E+00   9.62697056575596E-05  -3.83150267050054E-29
      9.62697056575596E-05   8.72102975435234E-16
      2.50000000000000E-01
      0.00000000000000E+00   0.00000000000000E+00   0.00000000000000E+00   0.00000000000000E+00  -1.11169438080680E-04
     -2.05242150868975E-25  -1.11169438080680E-04   5.35418717282235E-16   1.80000000000000E+00   1.80000000000000E+00
      0.00000000000000E+00   0.00000000000000E+00   0.00000000000000E+00   0.00000000000000E+00   0.00000000000000E+00
      1.33795116486421E-14   0.00000000000000E+00   0.00000000000000E+00   0.00000000000000E+00   0.00000000000000E+00
     -2.10189441095468E-17   2.05248340088106E-25  -2.10189439042984E-17  -1.48684342465290E-14   4.50000000000000E-01
      4.50000000000000E-01   0.00000000000000E+00   0.00000000000000E+00   1.11169438080701E-04  -6.18921913130403E-30
      1.11169438080701E-04   9.53503880604695E-16
      3.00000000000000E-01
      0.00000000000000E+00   0.00000000000000E+00   0.00000000000000E+00   0.00000000000000E+00  -1.22883076561847E-04
     -1.94798664155313E-25  -1.22883076561847E-04   5.35711931663309E-16   1.80000000000000E+00   1.80000000000000E+00
      0.00000000000000E+00   0.00000000000000E+00   0.00000000000000E+00   0.00000000000000E+00   0.00000000000000E+00
      1.29828634641781E-14   0.00000000000000E+00   0.00000000000000E+00   0.00000000000000E+00   0.00000000000000E+00
     -2.35124422740743E-18   1.94799231217105E-25  -2.35124403260820E-18  -1.45527084285602E-14   5.40000000000000E-01
      5.40000000000000E-01   0.00000000000000E+00   0.00000000000000E+00   1.22883076561849E-04  -5.67061792533607E-31
      1.22883076561849E-04   1.03413303271873E-15
      3.50000000000000E-01
      0.00000000000000E+00   0.00000000000000E+00   0.00000000000000E+00   0.00000000000000E+00  -1.31671684949305E-04
     -2.19667961349837E-25  -1.31671684949305E-04   5.35930169301635E-16   1.80000000000000E+00   1.80000000000000E+00
      0.00000000000000E+00   0.00000000000000E+00   0.00000000000000E+00   0.00000000000000E+00   0.00000000000000E+00
      1.26308037077082E-14   0.00000000000000E+00   0.00000000000000E+00   0.00000000000000E+00   0.00000000000000E+00
     -9.07602727719135E-18   2.19668058283090E-25  -9.07602705752329E-18  -1.42809927116692E-14   6.30000000000000E-01
      6.30000000000000E-01   0.00000000000000E+00   0.00000000000000E+00   1.31671684949314E-04  -9.69332537491472E-32
      1.31671684949314E-04   1.11425883465932E-15
      4.00000000000000E-01
      0.00000000000000E+00   0.00000000000000E+00   0.00000000000000E+00   0.00000000000000E+00  -1.37826105432250E-04
     -2.00597117704930E-25  -1.37826105432250E-04   5.36082066881592E-16   1.80000000000000E+00   1.80000000000000E+00
      0.00000000000000E+00   0.00000000000000E+00   0.00000000000000E+00   0.00000000000000E+00   0.00000000000000E+00
      1.23302077226725E-14   0.00000000000000E+00   0.00000000000000E+00   0.00000000000000E+00   0.00000000000000E+00
     -1.70585125170693E-18   2.00597130170639E-25  -1.70585105110980E-18  -1.40605039774282E-14   7.20000000000000E-01
      7.20000000000000E-01   0.00000000000000E+00   0.00000000000000E+00   1.37826105432252E-04  -1.24657081111202E-32
      1.37826105432252E-04   1.19421418787411E-15
      4.50000000000000E-01
      0.00000000000000E+00   0.00000000000000E+00   0.00000000000000E+00   0.00000000000000E+00  -1.41702176340262E-04
     -2.10953748463461E-25  -1.41702176340262E-04   5.36177330363204E-16   1.80000000000000E+00   1.80000000000000E+00
      0.00000000000000E+00   0.00000000000000E+00   0.00000000000000E+00   0.00000000000000E+00   0.00000000000000E+00
      1.20864026234349E-14   0.00000000000000E+00   0.00000000000000E+00   0.00000000000000E+00   0.00000000000000E+00
     -4.18039532352160E-16   2.10953750102166E-25  -4.18039532141206E-16  -1.38970271617526E-14   8.10000000000000E-01
      8.10000000000000E-01   0.00000000000000E+00   0.00000000000000E+00   1.41702176340680E-04  -1.63870453916699E-33
      1.41702176340680E-04   1.27444720795454E-15
      5.00000000000000E-01
      0.00000000000000E+00   0.00000000000000E+00   0.00000000000000E+00   0.00000000000000E+00  -1.43818410231433E-04
     -1.87490072030990E-25  -1.43818410231433E-04   5.36229208539393E-16   1.80000000000000E+00   1.80000000000000E+00
      0.00000000000000E+00   0.00000000000000E+00   0.00000000000000E+00   0.00000000000000E+00   0.00000000000000E+00
      1.18978569088544E-14   0.00000000000000E+00   0.00000000000000E+00   0.00000000000000E+00   0.00000000000000E+00
     -1.07665627474354E-15   1.87490072193214E-25  -1.07665627455605E-15  -1.37896188165887E-14   9.00000000000000E-01
      9.00000000000000E-01   0.00000000000000E+00   0.00000000000000E+00   1.43818410232510E-04  -1.62223826947417E-34
      1.43818410232510E-04   1.35553269919498E-15
      5.50000000000000E-01
      0.00000000000000E+00   0.00000000000000E+00   0.00000000000000E+00   0.00000000000000E+00  -1.44941525164832E-04
     -1.98084792977171E-25  -1.44941525164832E-04   5.36256702442162E-16   1.80000000000000E+00   1.80000000000000E+00
      0.00000000000000E+00   0.00000000000000E+00   0.00000000000000E+00   0.00000000000000E+00   0.00000000000000E+00
      1.17480799805653E-14   0.00000000000000E+00   0.00000000000000E+00   0.00000000000000E+00   0.00000000000000E+00
      7.13254033695347E-15   1.98084792988609E-25   7.13254033715155E-15  -1.37223357744081E-14   9.90000000000000E-01
      9.90000000000000E-01   0.00000000000000E+00   0.00000000000000E+00   1.44941525157700E-04  -1.14377870774287E-35
      1.44941525157700E-04   1.43799909140065E-15
      6.00000000000000E-01
      0.00000000000000E+00   0.00000000000000E+00   0.00000000000000E+00   0.00000000000000E+00  -1.45634534301732E-04
     -2.04040957507098E-25  -1.45634534301732E-04   5.36273653924372E-16   1.80000000000000E+00   1.80000000000000E+00
      0.00000000000000E+00   0.00000000000000E+00   0.00000000000000E+00   0.00000000000000E+00   0.00000000000000E+00
      1.16210569530165E-14   0.00000000000000E+00   0.00000000000000E+00   0.00000000000000E+00   0.00000000000000E+00
      1.57672954393147E-17   2.04040957512424E-25   1.57672956433557E-17  -1.36797340885733E-14   1.08000000000000E+00
      1.08000000000000E+00   0.00000000000000E+00   0.00000000000000E+00   1.45634534301717E-04  -5.32594425447289E-36
      1.45634534301717E-04   1.52240348163253E-15
      6.50000000000000E-01
      0.00000000000000E+00   0.00000000000000E+00   0.00000000000000E+00   0.00000000000000E+00  -1.46113008093500E-04
     -2.27773924769063E-25  -1.46113008093500E-04   5.36285351732888E-16   1.80000000000000E+00   1.80000000000000E+00
      0.00000000000000E+00   0.00000000000000E+00   0.00000000000000E+00   0.00000000000000E+00   0.00000000000000E+00
      1.15101498460367E-14   0.00000000000000E+00   0.00000000000000E+00   0.00000000000000E+00   0.00000000000000E+00
      1.51287433145543E-18   2.27773924769628E-25   1.51287455922936E-18  -1.36556058469801E-14   1.17000000000000E+00
      1.17000000000000E+00   0.00000000000000E+00   0.00000000000000E+00   1.46113008093499E-04  -5.65585571331273E-37
      1.46113008093499E-04   1.60917064921058E-15
      7.00000000000000E-01
      0.00000000000000E+00   0.00000000000000E+00   0.00000000000000E+00   0.00000000000000E+00  -1.46478195588235E-04
     -1.96308069116748E-25  -1.46478195588235E-04   5.36294276599212E-16   1.80000000000000E+00   1.80000000000000E+00
      0.00000000000000E+00   0.00000000000000E+00   0.00000000000000E+00   0.00000000000000E+00   0.00000000000000E+00
      1.14114940551166E-14   0.00000000000000E+00   0.00000000000000E+00   0.00000000000000E+00   0.00000000000000E+00
      4.86378018448698E-18   1.96308069116841E-25   4.86378038079505E-18  -1.36464200659396E-14   1.26000000000000E+00
      1.26000000000000E+00   0.00000000000000E+00   0.00000000000000E+00   1.46478195588230E-04  -9.26200185270200E-38
      1.46478195588230E-04   1.69863173422378E-15
      7.50000000000000E-01
      0.00000000000000E+00   0.00000000000000E+00   0.00000000000000E+00   0.00000000000000E+00  -1.46777339340919E-04
     -2.04924999230305E-25  -1.46777339340919E-04   5.36301585282140E-16   1.80000000000000E+00   1.80000000000000E+00
      0.00000000000000E+00   0.00000000000000E+00   0.00000000000000E+00   0.00000000000000E+00   0.00000000000000E+00
      1.13231558569885E-14   0.00000000000000E+00   0.00000000000000E+00   0.00000000000000E+00   0.00000000000000E+00
     -2.84379442801994E-18   2.04924999230315E-25  -2.84379422309494E-18  -1.36514430634986E-14   1.35000000000000E+00
      1.35000000000000E+00   0.00000000000000E+00   0.00000000000000E+00   1.46777339340922E-04  -9.22135898502358E-39
      1.46777339340922E-04   1.79198562122790E-15
      8.00000000000000E-01
      0.00000000000000E+00   0.00000000000000E+00   0.00000000000000E+00   0.00000000000000E+00  -1.47041463662510E-04
     -1.94206283529019E-25  -1.47041463662510E-04   5.36308036772396E-16   1.80000000000000E+00   1.80000000000000E+00
      0.00000000000000E+00   0.00000000000000E+00   0.00000000000000E+00   0.00000000000000E+00   0.00000000000000E+00
      1.12430216962497E-14   0.00000000000000E+00   0.00000000000000E+00   0.00000000000000E+00   0.00000000000000E+00
     -9.98014789927340E-19   1.94206283529020E-25  -9.98014595721056E-19  -1.36699753298617E-14   1.44000000000000E+00
      1.44000000000000E+00   0.00000000000000E+00   0.00000000000000E+00   1.47041463662511E-04  -1.00298993107994E-39
      1.47041463662511E-04   1.89064559683970E-15
      8.50000000000000E-01
      0.00000000000000E+00   0.00000000000000E+00   0.00000000000000E+00   0.00000000000000E+00  -1.47283043958758E-04
     -2.07980577660617E-25  -1.47283043958758E-04   5.36313936289886E-16   1.80000000000000E+00   1.80000000000000E+00
      0.00000000000000E+00   0.00000000000000E+00   0.00000000000000E+00   0.00000000000000E+00   0.00000000000000E+00
      1.11688825761743E-14   0.00000000000000E+00   0.00000000000000E+00   0.00000000000000E+00   0.00000000000000E+00
     -6.55763349589983E-13   2.07980577660617E-25  -6.55763349589775E-13  -1.36983573667252E-14   1.53000000000000E+00
      1.53000000000000E+00   0.00000000000000E+00   0.00000000000000E+00   1.47283044614521E-04  -1.45363100181963E-41
      1.47283044614521E-04   1.99316085426100E-15
      9.00000000000000E-01
      0.00000000000000E+00   0.00000000000000E+00   0.00000000000000E+00   0.00000000000000E+00  -1.47506818801833E-04
     -2.06802627674891E-25  -1.47506818801833E-04   5.36319399868372E-16   1.80000000000000E+00   1.80000000000000E+00
      0.00000000000000E+00   0.00000000000000E+00   0.00000000000000E+00   0.00000000000000E+00   0.00000000000000E+00
      1.10983539970849E-14   0.00000000000000E+00   0.00000000000000E+00   0.00000000000000E+00   0.00000000000000E+00
      6.06930015681163E-16   2.06802627674891E-25   6.06930015887966E-16  -1.37310384486400E-14   1.62000000000000E+00
      1.62000000000000E+00   0.00000000000000E+00   0.00000000000000E+00   1.47506818801226E-04  -9.70178684755219E-42
      1.47506818801226E-04   2.09636505168671E-15
      9.50000000000000E-01
      0.00000000000000E+00   0.00000000000000E+00   0.00000000000000E+00   0.00000000000000E+00  -1.47713842142083E-04
     -2.17242910092365E-25  -1.47713842142083E-04   5.36324453489767E-16   1.80000000000000E+00   1.80000000000000E+00
      0.00000000000000E+00   0.00000000000000E+00   0.00000000000000E+00   0.00000000000000E+00   0.00000000000000E+00
      1.10305601281422E-14   0.00000000000000E+00   0.00000000000000E+00   0.00000000000000E+00   0.00000000000000E+00
      2.24795440621355E-15   2.17242910092365E-25   2.24795440643079E-15  -1.37651485443107E-14   1.71000000000000E+00
      1.71000000000000E+00   0.00000000000000E+00   0.00000000000000E+00   1.47713842139835E-04  -3.24466100512443E-42
      1.47713842139835E-04   2.19826396267881E-15
      1.00000000000000E+00
      0.00000000000000E+00   0.00000000000000E+00   0.00000000000000E+00   0.00000000000000E+00  -1.47904589491590E-04
     -1.98928572695311E-25  -1.47904589491590E-04   5.36329108982157E-16   1.80000000000000E+00   1.80000000000000E+00
      0.00000000000000E+00   0.00000000000000E+00   0.00000000000000E+00   0.00000000000000E+00   0.00000000000000E+00
      1.09655073229329E-14   0.00000000000000E+00   0.00000000000000E+00   0.00000000000000E+00   0.00000000000000E+00
      1.55202677168466E-14   1.98928572695311E-25   1.55202677170456E-14  -1.37997934703226E-14   1.80000000000000E+00
      1.80000000000000E+00   0.00000000000000E+00   0.00000000000000E+00   1.47904589476069E-04  -6.09548259377637E-43
      1.47904589476069E-04   2.29795703840756E-15
}
