DF-ISE text

Info {
  version   = 1.0
  type      = xyplot
  datasets  = [
    "time"
    "source OuterVoltage" "source InnerVoltage" "source QuasiFermiPotential" "source DisplacementCurrent" "source eCurrent"
    "source hCurrent" "source TotalCurrent" "source Charge" "gate OuterVoltage" "gate InnerVoltage"
    "gate QuasiFermiPotential" "gate DisplacementCurrent" "gate eCurrent" "gate hCurrent" "gate TotalCurrent"
    "gate Charge" "substrate OuterVoltage" "substrate InnerVoltage" "substrate QuasiFermiPotential" "substrate DisplacementCurrent"
    "substrate eCurrent" "substrate hCurrent" "substrate TotalCurrent" "substrate Charge" "drain OuterVoltage"
    "drain InnerVoltage" "drain QuasiFermiPotential" "drain DisplacementCurrent" "drain eCurrent" "drain hCurrent"
    "drain TotalCurrent" "drain Charge" ]
  functions = [
    Time
    OuterVoltage InnerVoltage QuasiFermiPotential DisplacementCurrent eCurrent
    hCurrent TotalCurrent Charge OuterVoltage InnerVoltage
    QuasiFermiPotential DisplacementCurrent eCurrent hCurrent TotalCurrent
    Charge OuterVoltage InnerVoltage QuasiFermiPotential DisplacementCurrent
    eCurrent hCurrent TotalCurrent Charge OuterVoltage
    InnerVoltage QuasiFermiPotential DisplacementCurrent eCurrent hCurrent
    TotalCurrent Charge ]
}

Data {
      5.00000000000000E-02
      0.00000000000000E+00   0.00000000000000E+00   0.00000000000000E+00   0.00000000000000E+00  -3.67262635174397E-11
     -1.92039098648922E-25  -3.67262635174399E-11   9.90930679605642E-16   4.50000000000000E-01   4.50000000000000E-01
      0.00000000000000E+00   0.00000000000000E+00   0.00000000000000E+00   0.00000000000000E+00   0.00000000000000E+00
      2.50523115834989E-15   0.00000000000000E+00   0.00000000000000E+00   0.00000000000000E+00   0.00000000000000E+00
      3.16324175721185E-16   2.21437357685292E-25   3.16324175942622E-16  -4.61007390613096E-15   9.00000000000000E-02
      9.00000000000000E-02   0.00000000000000E+00   0.00000000000000E+00   3.67259471932639E-11  -2.93982590363693E-26
      3.67259471932639E-11   1.11391206817544E-15
      1.00000000000000E-01
      0.00000000000000E+00   0.00000000000000E+00   0.00000000000000E+00   0.00000000000000E+00  -3.75297477630166E-11
     -2.09815723757548E-25  -3.75297477630168E-11   9.90930679667435E-16   4.50000000000000E-01   4.50000000000000E-01
      0.00000000000000E+00   0.00000000000000E+00   0.00000000000000E+00   0.00000000000000E+00   0.00000000000000E+00
      2.43904041139631E-15   0.00000000000000E+00   0.00000000000000E+00   0.00000000000000E+00   0.00000000000000E+00
      4.00051250447554E-17   2.13450860865140E-25   4.00051252582062E-17  -4.66698765662607E-15   1.80000000000000E-01
      1.80000000000000E-01   0.00000000000000E+00   0.00000000000000E+00   3.75297077578916E-11  -3.63513710759221E-27
      3.75297077578916E-11   1.23701656556233E-15
      1.50000000000000E-01
      0.00000000000000E+00   0.00000000000000E+00   0.00000000000000E+00   0.00000000000000E+00  -3.75914742149889E-11
     -2.08824547814147E-25  -3.75914742149891E-11   9.90930679672183E-16   4.50000000000000E-01   4.50000000000000E-01
      0.00000000000000E+00   0.00000000000000E+00   0.00000000000000E+00   0.00000000000000E+00   0.00000000000000E+00
      2.37648849963857E-15   0.00000000000000E+00   0.00000000000000E+00   0.00000000000000E+00   0.00000000000000E+00
     -1.33570055598970E-18   2.09262165884905E-25  -1.33570034672754E-18  -4.72508111031232E-15   2.70000000000000E-01
      2.70000000000000E-01   0.00000000000000E+00   0.00000000000000E+00   3.75914755506894E-11  -4.37618070757881E-28
      3.75914755506894E-11   1.35766193100158E-15
      2.00000000000000E-01
      0.00000000000000E+00   0.00000000000000E+00   0.00000000000000E+00   0.00000000000000E+00  -3.76505152194653E-11
     -2.33939701820782E-25  -3.76505152194656E-11   9.90930679676723E-16   4.50000000000000E-01   4.50000000000000E-01
      0.00000000000000E+00   0.00000000000000E+00   0.00000000000000E+00   0.00000000000000E+00   0.00000000000000E+00
      2.31616715131209E-15   0.00000000000000E+00   0.00000000000000E+00   0.00000000000000E+00   0.00000000000000E+00
     -2.79259633586329E-20   2.34004146798879E-25  -2.79257293544861E-20  -4.78229905554076E-15   3.60000000000000E-01
      3.60000000000000E-01   0.00000000000000E+00   0.00000000000000E+00   3.76505152473913E-11  -6.44449780966387E-29
      3.76505152473913E-11   1.47520122455195E-15
      2.50000000000000E-01
      0.00000000000000E+00   0.00000000000000E+00   0.00000000000000E+00   0.00000000000000E+00  -3.77065705902314E-11
     -1.85935260705203E-25  -3.77065705902316E-11   9.90930679681035E-16   4.50000000000000E-01   4.50000000000000E-01
      0.00000000000000E+00   0.00000000000000E+00   0.00000000000000E+00   0.00000000000000E+00   0.00000000000000E+00
      2.25781933809468E-15   0.00000000000000E+00   0.00000000000000E+00   0.00000000000000E+00   0.00000000000000E+00
      7.91549383287110E-19   1.85942975435964E-25   7.91549569230085E-19  -4.83824524748841E-15   4.50000000000000E-01
      4.50000000000000E-01   0.00000000000000E+00   0.00000000000000E+00   3.77065697986820E-11  -7.71473076083370E-30
      3.77065697986820E-11   1.58949522971269E-15
      3.00000000000000E-01
      0.00000000000000E+00   0.00000000000000E+00   0.00000000000000E+00   0.00000000000000E+00  -3.77599515183359E-11
     -2.12544134852156E-25  -3.77599515183361E-11   9.90930679685140E-16   4.50000000000000E-01   4.50000000000000E-01
      0.00000000000000E+00   0.00000000000000E+00   0.00000000000000E+00   0.00000000000000E+00   0.00000000000000E+00
      2.20134706983781E-15   0.00000000000000E+00   0.00000000000000E+00   0.00000000000000E+00   0.00000000000000E+00
      9.48409917164341E-20   2.12544963410979E-25   9.48412042613975E-20  -4.89294127355807E-15   5.40000000000000E-01
      5.40000000000000E-01   0.00000000000000E+00   0.00000000000000E+00   3.77599514234949E-11  -8.28558822685269E-31
      3.77599514234949E-11   1.70066352403513E-15
      3.50000000000000E-01
      0.00000000000000E+00   0.00000000000000E+00   0.00000000000000E+00   0.00000000000000E+00  -3.78111396070571E-11
     -2.05422327616802E-25  -3.78111396070573E-11   9.90930679689077E-16   4.50000000000000E-01   4.50000000000000E-01
      0.00000000000000E+00   0.00000000000000E+00   0.00000000000000E+00   0.00000000000000E+00   0.00000000000000E+00
      2.14634298152673E-15   0.00000000000000E+00   0.00000000000000E+00   0.00000000000000E+00   0.00000000000000E+00
     -1.38780342447196E-18   2.05422437863415E-25  -1.38780321904952E-18  -4.94648806556371E-15   6.30000000000000E-01
      6.30000000000000E-01   0.00000000000000E+00   0.00000000000000E+00   3.78111409948605E-11  -1.10246612201676E-31
      3.78111409948605E-11   1.80921440434791E-15
      4.00000000000000E-01
      0.00000000000000E+00   0.00000000000000E+00   0.00000000000000E+00   0.00000000000000E+00  -3.78602362758664E-11
     -2.15938152060840E-25  -3.78602362758666E-11   9.90930679692853E-16   4.50000000000000E-01   4.50000000000000E-01
      0.00000000000000E+00   0.00000000000000E+00   0.00000000000000E+00   0.00000000000000E+00   0.00000000000000E+00
      2.09253488506477E-15   0.00000000000000E+00   0.00000000000000E+00   0.00000000000000E+00   0.00000000000000E+00
     -1.25407892817535E-18   2.15938168100498E-25  -1.25407871223718E-18  -4.99898233619735E-15   7.20000000000000E-01
      7.20000000000000E-01   0.00000000000000E+00   0.00000000000000E+00   3.78602375299453E-11  -1.60396571603979E-32
      3.78602375299453E-11   1.91551677143973E-15
      4.50000000000000E-01
      0.00000000000000E+00   0.00000000000000E+00   0.00000000000000E+00   0.00000000000000E+00  -3.79070800561724E-11
     -2.15173330029825E-25  -3.79070800561726E-11   9.90930679696455E-16   4.50000000000000E-01   4.50000000000000E-01
      0.00000000000000E+00   0.00000000000000E+00   0.00000000000000E+00   0.00000000000000E+00   0.00000000000000E+00
      2.03999088814457E-15   0.00000000000000E+00   0.00000000000000E+00   0.00000000000000E+00   0.00000000000000E+00
     -8.76218464068634E-19   2.15173333774413E-25  -8.76218248895301E-19  -5.05049402234050E-15   8.10000000000000E-01
      8.10000000000000E-01   0.00000000000000E+00   0.00000000000000E+00   3.79070809323909E-11  -3.74458752117464E-33
      3.79070809323909E-11   2.01957245449947E-15
      5.00000000000000E-01
      0.00000000000000E+00   0.00000000000000E+00   0.00000000000000E+00   0.00000000000000E+00  -3.79515033871521E-11
     -2.14089105710464E-25  -3.79515033871523E-11   9.90930679699872E-16   4.50000000000000E-01   4.50000000000000E-01
      0.00000000000000E+00   0.00000000000000E+00   0.00000000000000E+00   0.00000000000000E+00   0.00000000000000E+00
      1.98882162824979E-15   0.00000000000000E+00   0.00000000000000E+00   0.00000000000000E+00   0.00000000000000E+00
      1.59709891039123E-19   2.14089105589782E-25   1.59710105128229E-19  -5.10107109925501E-15   9.00000000000000E-01
      9.00000000000000E-01   0.00000000000000E+00   0.00000000000000E+00   3.79515032274422E-11   1.20681652957569E-34
      3.79515032274422E-11   2.12131879130534E-15
      5.50000000000000E-01
      0.00000000000000E+00   0.00000000000000E+00   0.00000000000000E+00   0.00000000000000E+00  -3.79935778911898E-11
     -2.21812943746249E-25  -3.79935778911900E-11   9.90930679703108E-16   4.50000000000000E-01   4.50000000000000E-01
      0.00000000000000E+00   0.00000000000000E+00   0.00000000000000E+00   0.00000000000000E+00   0.00000000000000E+00
      1.93890743307380E-15   0.00000000000000E+00   0.00000000000000E+00   0.00000000000000E+00   0.00000000000000E+00
     -1.96484411367405E-19   2.21812943791971E-25  -1.96484189554461E-19  -5.15076030413942E-15   9.90000000000000E-01
      9.90000000000000E-01   0.00000000000000E+00   0.00000000000000E+00   3.79935780876742E-11  -4.57215105556502E-35
      3.79935780876742E-11   2.22092219136252E-15
      6.00000000000000E-01
      0.00000000000000E+00   0.00000000000000E+00   0.00000000000000E+00   0.00000000000000E+00  -3.80335711651921E-11
     -2.19624933183363E-25  -3.80335711651923E-11   9.90930679706183E-16   4.50000000000000E-01   4.50000000000000E-01
      0.00000000000000E+00   0.00000000000000E+00   0.00000000000000E+00   0.00000000000000E+00   0.00000000000000E+00
      1.89004488471084E-15   0.00000000000000E+00   0.00000000000000E+00   0.00000000000000E+00   0.00000000000000E+00
     -1.20315763108862E-18   2.19624933172144E-25  -1.20315741146368E-18  -5.19961275835691E-15   1.08000000000000E+00
      1.08000000000000E+00   0.00000000000000E+00   0.00000000000000E+00   3.80335723683497E-11   1.12187735111795E-35
      3.80335723683497E-11   2.31863719393989E-15
      6.50000000000000E-01
      0.00000000000000E+00   0.00000000000000E+00   0.00000000000000E+00   0.00000000000000E+00  -3.80718566641830E-11
     -1.99504562278616E-25  -3.80718566641832E-11   9.90930679709128E-16   4.50000000000000E-01   4.50000000000000E-01
      0.00000000000000E+00   0.00000000000000E+00   0.00000000000000E+00   0.00000000000000E+00   0.00000000000000E+00
      1.84211413077570E-15   0.00000000000000E+00   0.00000000000000E+00   0.00000000000000E+00   0.00000000000000E+00
      4.34951676432250E-19   1.99504562273606E-25   4.34951875936813E-19  -5.24768958400558E-15   1.17000000000000E+00
      1.17000000000000E+00   0.00000000000000E+00   0.00000000000000E+00   3.80718562292313E-11   5.00931309986871E-36
      3.80718562292313E-11   2.41464477352075E-15
      7.00000000000000E-01
      0.00000000000000E+00   0.00000000000000E+00   0.00000000000000E+00   0.00000000000000E+00  -3.81089123896792E-11
     -2.03273955434718E-25  -3.81089123896794E-11   9.90930679711978E-16   4.50000000000000E-01   4.50000000000000E-01
      0.00000000000000E+00   0.00000000000000E+00   0.00000000000000E+00   0.00000000000000E+00   0.00000000000000E+00
      1.79500068706196E-15   0.00000000000000E+00   0.00000000000000E+00   0.00000000000000E+00   0.00000000000000E+00
      1.12050630274562E-18   2.03273955431594E-25   1.12050650601958E-18  -5.29506649207823E-15   1.26000000000000E+00
      1.26000000000000E+00   0.00000000000000E+00   0.00000000000000E+00   3.81089112691730E-11   3.12408899778794E-36
      3.81089112691730E-11   2.50913512530430E-15
      7.50000000000000E-01
      0.00000000000000E+00   0.00000000000000E+00   0.00000000000000E+00   0.00000000000000E+00  -3.81451170679562E-11
     -2.05850884402774E-25  -3.81451170679564E-11   9.90930679714762E-16   4.50000000000000E-01   4.50000000000000E-01
      0.00000000000000E+00   0.00000000000000E+00   0.00000000000000E+00   0.00000000000000E+00   0.00000000000000E+00
      1.74858631014348E-15   0.00000000000000E+00   0.00000000000000E+00   0.00000000000000E+00   0.00000000000000E+00
     -1.28989962323783E-18   2.05850884400397E-25  -1.28989941738695E-18  -5.34181102391880E-15   1.35000000000000E+00
      1.35000000000000E+00   0.00000000000000E+00   0.00000000000000E+00   3.81451183578558E-11   2.37736899700598E-36
      3.81451183578558E-11   2.60229403406057E-15
      8.00000000000000E-01
      0.00000000000000E+00   0.00000000000000E+00   0.00000000000000E+00   0.00000000000000E+00  -3.81806530823884E-11
     -2.05913447828184E-25  -3.81806530823886E-11   9.90930679717495E-16   4.50000000000000E-01   4.50000000000000E-01
      0.00000000000000E+00   0.00000000000000E+00   0.00000000000000E+00   0.00000000000000E+00   0.00000000000000E+00
      1.70282554290016E-15   0.00000000000000E+00   0.00000000000000E+00   0.00000000000000E+00   0.00000000000000E+00
     -2.15722402312884E-19   2.05913447827157E-25  -2.15722196399436E-19  -5.38796900326566E-15   1.44000000000000E+00
      1.44000000000000E+00   0.00000000000000E+00   0.00000000000000E+00   3.81806532981108E-11   1.02705553850682E-36
      3.81806532981108E-11   2.69421278064802E-15
      8.50000000000000E-01
      0.00000000000000E+00   0.00000000000000E+00   0.00000000000000E+00   0.00000000000000E+00  -3.82155530702745E-11
     -2.20293232894793E-25  -3.82155530702747E-11   9.90930679720179E-16   4.50000000000000E-01   4.50000000000000E-01
      0.00000000000000E+00   0.00000000000000E+00   0.00000000000000E+00   0.00000000000000E+00   0.00000000000000E+00
      1.65776821833564E-15   0.00000000000000E+00   0.00000000000000E+00   0.00000000000000E+00   0.00000000000000E+00
     -1.40660648132167E-18   2.20293232894464E-25  -1.40660626102844E-18  -5.43356793241032E-15   1.53000000000000E+00
      1.53000000000000E+00   0.00000000000000E+00   0.00000000000000E+00   3.82155544768810E-11   3.29140314225538E-37
      3.82155544768810E-11   2.78486903435451E-15
      9.00000000000000E-01
      0.00000000000000E+00   0.00000000000000E+00   0.00000000000000E+00   0.00000000000000E+00  -3.82497809185274E-11
     -2.05085524988544E-25  -3.82497809185276E-11   9.90930679722811E-16   4.50000000000000E-01   4.50000000000000E-01
      0.00000000000000E+00   0.00000000000000E+00   0.00000000000000E+00   0.00000000000000E+00   0.00000000000000E+00
      1.61351427441723E-15   0.00000000000000E+00   0.00000000000000E+00   0.00000000000000E+00   0.00000000000000E+00
     -1.26997974952781E-18   2.05085524988146E-25  -1.26997954444229E-18  -5.47862089752519E-15   1.62000000000000E+00
      1.62000000000000E+00   0.00000000000000E+00   0.00000000000000E+00   3.82497821885071E-11   3.97192560280881E-37
      3.82497821885071E-11   2.87417594338515E-15
      9.50000000000000E-01
      0.00000000000000E+00   0.00000000000000E+00   0.00000000000000E+00   0.00000000000000E+00  -3.82833080222335E-11
     -2.15841919567467E-25  -3.82833080222337E-11   9.90930679725388E-16   4.50000000000000E-01   4.50000000000000E-01
      0.00000000000000E+00   0.00000000000000E+00   0.00000000000000E+00   0.00000000000000E+00   0.00000000000000E+00
      1.57013703957640E-15   0.00000000000000E+00   0.00000000000000E+00   0.00000000000000E+00   0.00000000000000E+00
      1.51292697120542E-18   2.15841919567261E-25   1.51292718704734E-18  -5.52312873134398E-15   1.71000000000000E+00
      1.71000000000000E+00   0.00000000000000E+00   0.00000000000000E+00   3.82833065093065E-11   2.05542843374672E-37
      3.82833065093065E-11   2.96206101204220E-15
      1.00000000000000E+00
      0.00000000000000E+00   0.00000000000000E+00   0.00000000000000E+00   0.00000000000000E+00  -3.83161723609661E-11
     -2.03811073957597E-25  -3.83161723609663E-11   9.90930679727917E-16   4.50000000000000E-01   4.50000000000000E-01
      0.00000000000000E+00   0.00000000000000E+00   0.00000000000000E+00   0.00000000000000E+00   0.00000000000000E+00
      1.52757304212979E-15   0.00000000000000E+00   0.00000000000000E+00   0.00000000000000E+00   0.00000000000000E+00
     -8.44473207924466E-19   2.03811073957495E-25  -8.44473004113392E-19  -5.56708319841881E-15   1.80000000000000E+00
      1.80000000000000E+00   0.00000000000000E+00   0.00000000000000E+00   3.83161732054393E-11   1.01648899809552E-37
      3.83161732054393E-11   3.04857947656112E-15
}
