DF-ISE text

Info {
  version   = 1.0
  type      = xyplot
  datasets  = [
    "time"
    "source OuterVoltage" "source InnerVoltage" "source QuasiFermiPotential" "source DisplacementCurrent" "source eCurrent"
    "source hCurrent" "source TotalCurrent" "source Charge" "gate OuterVoltage" "gate InnerVoltage"
    "gate QuasiFermiPotential" "gate DisplacementCurrent" "gate eCurrent" "gate hCurrent" "gate TotalCurrent"
    "gate Charge" "substrate OuterVoltage" "substrate InnerVoltage" "substrate QuasiFermiPotential" "substrate DisplacementCurrent"
    "substrate eCurrent" "substrate hCurrent" "substrate TotalCurrent" "substrate Charge" "drain OuterVoltage"
    "drain InnerVoltage" "drain QuasiFermiPotential" "drain DisplacementCurrent" "drain eCurrent" "drain hCurrent"
    "drain TotalCurrent" "drain Charge" ]
  functions = [
    Time
    OuterVoltage InnerVoltage QuasiFermiPotential DisplacementCurrent eCurrent
    hCurrent TotalCurrent Charge OuterVoltage InnerVoltage
    QuasiFermiPotential DisplacementCurrent eCurrent hCurrent TotalCurrent
    Charge OuterVoltage InnerVoltage QuasiFermiPotential DisplacementCurrent
    eCurrent hCurrent TotalCurrent Charge OuterVoltage
    InnerVoltage QuasiFermiPotential DisplacementCurrent eCurrent hCurrent
    TotalCurrent Charge ]
}

Data {
      5.00000000000000E-02
      0.00000000000000E+00   0.00000000000000E+00   0.00000000000000E+00   0.00000000000000E+00  -9.18268807477212E-05
     -2.50464352145717E-25  -9.18268807477212E-05   7.55318758552000E-16   9.00000000000000E-01   9.00000000000000E-01
      0.00000000000000E+00   0.00000000000000E+00   0.00000000000000E+00   0.00000000000000E+00   0.00000000000000E+00
      9.02290700477228E-16   0.00000000000000E+00   0.00000000000000E+00   0.00000000000000E+00   0.00000000000000E+00
      6.10509663147274E-18   2.75904736382553E-25   6.10509690737748E-18  -2.50427936006367E-15   9.00000000000000E-02
      9.00000000000000E-02   0.00000000000000E+00   0.00000000000000E+00   9.18268807477151E-05  -2.54403842368361E-26
      9.18268807477151E-05   8.46669901034441E-16
      1.00000000000000E-01
      0.00000000000000E+00   0.00000000000000E+00   0.00000000000000E+00   0.00000000000000E+00  -1.50863043338858E-04
     -2.96251466477787E-25  -1.50863043338858E-04   7.51288707803860E-16   9.00000000000000E-01   9.00000000000000E-01
      0.00000000000000E+00   0.00000000000000E+00   0.00000000000000E+00   0.00000000000000E+00   0.00000000000000E+00
      8.01411634090715E-16   0.00000000000000E+00   0.00000000000000E+00   0.00000000000000E+00   0.00000000000000E+00
     -7.54108867714949E-18   2.99237444221301E-25  -7.54108837791204E-18  -2.48953859937420E-15   1.80000000000000E-01
      1.80000000000000E-01   0.00000000000000E+00   0.00000000000000E+00   1.50863043338865E-04  -2.98597774351381E-27
      1.50863043338865E-04   9.36838257479625E-16
      1.50000000000000E-01
      0.00000000000000E+00   0.00000000000000E+00   0.00000000000000E+00   0.00000000000000E+00  -1.84780219603965E-04
     -2.81784997894126E-25  -1.84780219603965E-04   7.46441011506721E-16   9.00000000000000E-01   9.00000000000000E-01
      0.00000000000000E+00   0.00000000000000E+00   0.00000000000000E+00   0.00000000000000E+00   0.00000000000000E+00
      7.07298187677124E-16   0.00000000000000E+00   0.00000000000000E+00   0.00000000000000E+00   0.00000000000000E+00
     -7.98198012511194E-18   2.82060003279558E-25  -7.98197984305193E-18  -2.48291652088555E-15   2.70000000000000E-01
      2.70000000000000E-01   0.00000000000000E+00   0.00000000000000E+00   1.84780219603973E-04  -2.75005385432027E-28
      1.84780219603973E-04   1.02917732170170E-15
      2.00000000000000E-01
      0.00000000000000E+00   0.00000000000000E+00   0.00000000000000E+00   0.00000000000000E+00  -2.05057229898443E-04
     -2.66895257028911E-25  -2.05057229898443E-04   7.41694735160192E-16   9.00000000000000E-01   9.00000000000000E-01
      0.00000000000000E+00   0.00000000000000E+00   0.00000000000000E+00   0.00000000000000E+00   0.00000000000000E+00
      6.21782637192234E-16   0.00000000000000E+00   0.00000000000000E+00   0.00000000000000E+00   0.00000000000000E+00
      1.66445471768398E-18   2.66919266142397E-25   1.66445498460324E-18  -2.48727148051121E-15   3.60000000000000E-01
      3.60000000000000E-01   0.00000000000000E+00   0.00000000000000E+00   2.05057229898441E-04  -2.40091134864448E-29
      2.05057229898441E-04   1.12379410815878E-15
      2.50000000000000E-01
      0.00000000000000E+00   0.00000000000000E+00   0.00000000000000E+00   0.00000000000000E+00  -2.19615154617639E-04
     -2.61607585410098E-25  -2.19615154617639E-04   7.37325308566164E-16   9.00000000000000E-01   9.00000000000000E-01
      0.00000000000000E+00   0.00000000000000E+00   0.00000000000000E+00   0.00000000000000E+00   0.00000000000000E+00
      5.45057464207584E-16   0.00000000000000E+00   0.00000000000000E+00   0.00000000000000E+00   0.00000000000000E+00
      3.39063055147720E-18   2.61610876951604E-25   3.39063081308807E-18  -2.50390244018678E-15   4.50000000000000E-01
      4.50000000000000E-01   0.00000000000000E+00   0.00000000000000E+00   2.19615154617636E-04  -3.29154150667540E-30
      2.19615154617636E-04   1.22151966741304E-15
      3.00000000000000E-01
      0.00000000000000E+00   0.00000000000000E+00   0.00000000000000E+00   0.00000000000000E+00  -2.31876132018235E-04
     -2.65460473569538E-25  -2.31876132018235E-04   7.33258842538871E-16   9.00000000000000E-01   9.00000000000000E-01
      0.00000000000000E+00   0.00000000000000E+00   0.00000000000000E+00   0.00000000000000E+00   0.00000000000000E+00
      4.76306762313814E-16   0.00000000000000E+00   0.00000000000000E+00   0.00000000000000E+00   0.00000000000000E+00
      6.10013301711010E-18   2.65460455924259E-25   6.10013328257056E-18  -2.53351633333131E-15   5.40000000000000E-01
      5.40000000000000E-01   0.00000000000000E+00   0.00000000000000E+00   2.31876132018229E-04   1.76452789535258E-32
      2.31876132018229E-04   1.32395072847862E-15
      3.50000000000000E-01
      0.00000000000000E+00   0.00000000000000E+00   0.00000000000000E+00   0.00000000000000E+00  -2.43132979794264E-04
     -2.69439976875943E-25  -2.43132979794264E-04   7.29407630686231E-16   9.00000000000000E-01   9.00000000000000E-01
      0.00000000000000E+00   0.00000000000000E+00   0.00000000000000E+00   0.00000000000000E+00   0.00000000000000E+00
      4.13631566212220E-16   0.00000000000000E+00   0.00000000000000E+00   0.00000000000000E+00   0.00000000000000E+00
      6.36228354952005E-18   2.69439951261350E-25   6.36228381896000E-18  -2.57321846385434E-15   6.30000000000000E-01
      6.30000000000000E-01   0.00000000000000E+00   0.00000000000000E+00   2.43132979794257E-04   2.56145934183505E-32
      2.43132979794257E-04   1.43017926695588E-15
      4.00000000000000E-01
      0.00000000000000E+00   0.00000000000000E+00   0.00000000000000E+00   0.00000000000000E+00  -2.53732902855609E-04
     -2.88127334695489E-25  -2.53732902855609E-04   7.25744513544970E-16   9.00000000000000E-01   9.00000000000000E-01
      0.00000000000000E+00   0.00000000000000E+00   0.00000000000000E+00   0.00000000000000E+00   0.00000000000000E+00
      3.54608768567150E-16   0.00000000000000E+00   0.00000000000000E+00   0.00000000000000E+00   0.00000000000000E+00
     -9.96467149188939E-18   2.88127326381442E-25  -9.96467120376207E-18  -2.61743008117089E-15   7.20000000000000E-01
      7.20000000000000E-01   0.00000000000000E+00   0.00000000000000E+00   2.53732902855619E-04   8.31404769528712E-33
      2.53732902855619E-04   1.53707679905877E-15
      4.50000000000000E-01
      0.00000000000000E+00   0.00000000000000E+00   0.00000000000000E+00   0.00000000000000E+00  -2.63756628333436E-04
     -2.87738312436802E-25  -2.63756628333436E-04   7.22264433573892E-16   9.00000000000000E-01   9.00000000000000E-01
      0.00000000000000E+00   0.00000000000000E+00   0.00000000000000E+00   0.00000000000000E+00   0.00000000000000E+00
      2.97900782060280E-16   0.00000000000000E+00   0.00000000000000E+00   0.00000000000000E+00   0.00000000000000E+00
      5.81332508775785E-18   2.87738313008604E-25   5.81332537549616E-18  -2.66273412456571E-15   8.10000000000000E-01
      8.10000000000000E-01   0.00000000000000E+00   0.00000000000000E+00   2.63756628333430E-04  -5.71802287761195E-34
      2.63756628333430E-04   1.64256890893153E-15
      5.00000000000000E-01
      0.00000000000000E+00   0.00000000000000E+00   0.00000000000000E+00   0.00000000000000E+00  -2.73238351191575E-04
     -2.90594967818359E-25  -2.73238351191575E-04   7.18959606114638E-16   9.00000000000000E-01   9.00000000000000E-01
      0.00000000000000E+00   0.00000000000000E+00   0.00000000000000E+00   0.00000000000000E+00   0.00000000000000E+00
      2.43096165914855E-16   0.00000000000000E+00   0.00000000000000E+00   0.00000000000000E+00   0.00000000000000E+00
     -2.08400670086526E-18   2.90594967624758E-25  -2.08400641027030E-18  -2.70799378721910E-15   9.00000000000000E-01
      9.00000000000000E-01   0.00000000000000E+00   0.00000000000000E+00   2.73238351191577E-04   1.93600689069457E-34
      2.73238351191577E-04   1.74593801518961E-15
      5.50000000000000E-01
      0.00000000000000E+00   0.00000000000000E+00   0.00000000000000E+00   0.00000000000000E+00  -2.82259482607733E-04
     -2.64746328686528E-25  -2.82259482607733E-04   7.15805044616622E-16   9.00000000000000E-01   9.00000000000000E-01
      0.00000000000000E+00   0.00000000000000E+00   0.00000000000000E+00   0.00000000000000E+00   0.00000000000000E+00
      1.90001144999577E-16   0.00000000000000E+00   0.00000000000000E+00   0.00000000000000E+00   0.00000000000000E+00
      4.04631437747906E-18   2.64746328684441E-25   4.04631464222539E-18  -2.75290622141016E-15   9.90000000000000E-01
      9.90000000000000E-01   0.00000000000000E+00   0.00000000000000E+00   2.82259482607729E-04   2.08699120943191E-36
      2.82259482607729E-04   1.84710003179396E-15
      6.00000000000000E-01
      0.00000000000000E+00   0.00000000000000E+00   0.00000000000000E+00   0.00000000000000E+00  -2.91000279854997E-04
     -2.74851569503670E-25  -2.91000279854997E-04   7.12763308768981E-16   9.00000000000000E-01   9.00000000000000E-01
      0.00000000000000E+00   0.00000000000000E+00   0.00000000000000E+00   0.00000000000000E+00   0.00000000000000E+00
      1.38430834005018E-16   0.00000000000000E+00   0.00000000000000E+00   0.00000000000000E+00   0.00000000000000E+00
     -1.50342924270765E-18   2.74851569496422E-25  -1.50342896785608E-18  -2.79733415687320E-15   1.08000000000000E+00
      1.08000000000000E+00   0.00000000000000E+00   0.00000000000000E+00   2.91000279854998E-04   7.24854200129693E-36
      2.91000279854998E-04   1.94614001409920E-15
      6.50000000000000E-01
      0.00000000000000E+00   0.00000000000000E+00   0.00000000000000E+00   0.00000000000000E+00  -2.99563900410518E-04
     -2.79482694956118E-25  -2.99563900410518E-04   7.09806796030001E-16   9.00000000000000E-01   9.00000000000000E-01
      0.00000000000000E+00   0.00000000000000E+00   0.00000000000000E+00   0.00000000000000E+00   0.00000000000000E+00
      8.82324258364026E-17   0.00000000000000E+00   0.00000000000000E+00   0.00000000000000E+00   0.00000000000000E+00
     -7.53028477944431E-19   2.79482694956331E-25  -7.53028198461736E-19  -2.84125970634053E-15   1.17000000000000E+00
      1.17000000000000E+00   0.00000000000000E+00   0.00000000000000E+00   2.99563900410518E-04  -2.12783765194375E-37
      2.99563900410518E-04   2.04322048447413E-15
      7.00000000000000E-01
      0.00000000000000E+00   0.00000000000000E+00   0.00000000000000E+00   0.00000000000000E+00  -3.08007280438195E-04
     -2.57560879212027E-25  -3.08007280438195E-04   7.06917681791488E-16   9.00000000000000E-01   9.00000000000000E-01
      0.00000000000000E+00   0.00000000000000E+00   0.00000000000000E+00   0.00000000000000E+00   0.00000000000000E+00
      3.92082932362443E-17   0.00000000000000E+00   0.00000000000000E+00   0.00000000000000E+00   0.00000000000000E+00
      6.13891649816346E-18   2.57560879211899E-25   6.13891675572434E-18  -2.88470166013467E-15   1.26000000000000E+00
      1.26000000000000E+00   0.00000000000000E+00   0.00000000000000E+00   3.08007280438189E-04   1.28609670164394E-37
      3.08007280438189E-04   2.13857568510693E-15
      7.50000000000000E-01
      0.00000000000000E+00   0.00000000000000E+00   0.00000000000000E+00   0.00000000000000E+00  -3.16375204371810E-04
     -2.69891697580528E-25  -3.16375204371810E-04   7.04084926374382E-16   9.00000000000000E-01   9.00000000000000E-01
      0.00000000000000E+00   0.00000000000000E+00   0.00000000000000E+00   0.00000000000000E+00   0.00000000000000E+00
     -8.86435233610548E-18   0.00000000000000E+00   0.00000000000000E+00   0.00000000000000E+00   0.00000000000000E+00
      3.18708166315980E-18   2.69891697580504E-25   3.18708193305150E-18  -2.92767452928766E-15   1.35000000000000E+00
      1.35000000000000E+00   0.00000000000000E+00   0.00000000000000E+00   3.16375204371807E-04   2.42271912720465E-38
      3.16375204371807E-04   2.23245395524938E-15
      8.00000000000000E-01
      0.00000000000000E+00   0.00000000000000E+00   0.00000000000000E+00   0.00000000000000E+00  -3.24689203381090E-04
     -2.59822464087172E-25  -3.24689203381090E-04   7.01301265689255E-16   9.00000000000000E-01   9.00000000000000E-01
      0.00000000000000E+00   0.00000000000000E+00   0.00000000000000E+00   0.00000000000000E+00   0.00000000000000E+00
     -5.61455331144819E-17   0.00000000000000E+00   0.00000000000000E+00   0.00000000000000E+00   0.00000000000000E+00
     -4.80926832446014E-19   2.59822464087170E-25  -4.80926572623550E-19  -2.97020384932720E-15   1.44000000000000E+00
      1.44000000000000E+00   0.00000000000000E+00   0.00000000000000E+00   3.24689203381090E-04   2.56869919999522E-39
      3.24689203381090E-04   2.32504811675243E-15
      8.50000000000000E-01
      0.00000000000000E+00   0.00000000000000E+00   0.00000000000000E+00   0.00000000000000E+00  -3.32950151526618E-04
     -2.70829118943590E-25  -3.32950151526618E-04   6.98563717571891E-16   9.00000000000000E-01   9.00000000000000E-01
      0.00000000000000E+00   0.00000000000000E+00   0.00000000000000E+00   0.00000000000000E+00   0.00000000000000E+00
     -1.02659074687644E-16   0.00000000000000E+00   0.00000000000000E+00   0.00000000000000E+00   0.00000000000000E+00
     -3.57769265002259E-19   2.70829118943587E-25  -3.57768994173140E-19  -3.01231135162892E-15   1.53000000000000E+00
      1.53000000000000E+00   0.00000000000000E+00   0.00000000000000E+00   3.32950151526618E-04   2.24736490449398E-39
      3.32950151526618E-04   2.41640670874467E-15
      9.00000000000000E-01
      0.00000000000000E+00   0.00000000000000E+00   0.00000000000000E+00   0.00000000000000E+00  -3.41077776655162E-04
     -2.29112166975935E-25  -3.41077776655162E-04   6.95879574559151E-16   9.00000000000000E-01   9.00000000000000E-01
      0.00000000000000E+00   0.00000000000000E+00   0.00000000000000E+00   0.00000000000000E+00   0.00000000000000E+00
     -1.48259968294195E-16   0.00000000000000E+00   0.00000000000000E+00   0.00000000000000E+00   0.00000000000000E+00
      3.93642308369838E-19   2.29112166975934E-25   3.93642537482005E-19  -3.05407272616494E-15   1.62000000000000E+00
      1.62000000000000E+00   0.00000000000000E+00   0.00000000000000E+00   3.41077776655162E-04   9.95076971709680E-40
      3.41077776655162E-04   2.50645311989999E-15
      9.50000000000000E-01
      0.00000000000000E+00   0.00000000000000E+00   0.00000000000000E+00   0.00000000000000E+00  -3.49095232098391E-04
     -2.65150262927669E-25  -3.49095232098391E-04   6.93249341581560E-16   9.00000000000000E-01   9.00000000000000E-01
      0.00000000000000E+00   0.00000000000000E+00   0.00000000000000E+00   0.00000000000000E+00   0.00000000000000E+00
     -1.92806802977930E-16   0.00000000000000E+00   0.00000000000000E+00   0.00000000000000E+00   0.00000000000000E+00
      5.62005351579476E-18   2.65150262927669E-25   5.62005378094502E-18  -3.09542270979590E-15   1.71000000000000E+00
      1.71000000000000E+00   0.00000000000000E+00   0.00000000000000E+00   3.49095232098385E-04   7.02630430427408E-41
      3.49095232098385E-04   2.59498017119227E-15
      1.00000000000000E+00
      0.00000000000000E+00   0.00000000000000E+00   0.00000000000000E+00   0.00000000000000E+00  -3.56956810939727E-04
     -2.75861927407974E-25  -3.56956810939727E-04   6.90680051639158E-16   9.00000000000000E-01   9.00000000000000E-01
      0.00000000000000E+00   0.00000000000000E+00   0.00000000000000E+00   0.00000000000000E+00   0.00000000000000E+00
     -2.36107594957330E-16   0.00000000000000E+00   0.00000000000000E+00   0.00000000000000E+00   0.00000000000000E+00
     -4.65183037835144E-18   2.75861927407974E-25  -4.65183010248951E-18  -3.13635489763450E-15   1.80000000000000E+00
      1.80000000000000E+00   0.00000000000000E+00   0.00000000000000E+00   3.56956810939731E-04   1.69816403781519E-40
      3.56956810939731E-04   2.68178244095267E-15
}
