DF-ISE text

Info {
  version   = 1.0
  type      = xyplot
  datasets  = [
    "time"
    "source OuterVoltage" "source InnerVoltage" "source QuasiFermiPotential" "source DisplacementCurrent" "source eCurrent"
    "source hCurrent" "source TotalCurrent" "source Charge" "gate OuterVoltage" "gate InnerVoltage"
    "gate QuasiFermiPotential" "gate DisplacementCurrent" "gate eCurrent" "gate hCurrent" "gate TotalCurrent"
    "gate Charge" "substrate OuterVoltage" "substrate InnerVoltage" "substrate QuasiFermiPotential" "substrate DisplacementCurrent"
    "substrate eCurrent" "substrate hCurrent" "substrate TotalCurrent" "substrate Charge" "drain OuterVoltage"
    "drain InnerVoltage" "drain QuasiFermiPotential" "drain DisplacementCurrent" "drain eCurrent" "drain hCurrent"
    "drain TotalCurrent" "drain Charge" ]
  functions = [
    Time
    OuterVoltage InnerVoltage QuasiFermiPotential DisplacementCurrent eCurrent
    hCurrent TotalCurrent Charge OuterVoltage InnerVoltage
    QuasiFermiPotential DisplacementCurrent eCurrent hCurrent TotalCurrent
    Charge OuterVoltage InnerVoltage QuasiFermiPotential DisplacementCurrent
    eCurrent hCurrent TotalCurrent Charge OuterVoltage
    InnerVoltage QuasiFermiPotential DisplacementCurrent eCurrent hCurrent
    TotalCurrent Charge ]
}

Data {
      5.00000000000000E-02
      0.00000000000000E+00   0.00000000000000E+00   0.00000000000000E+00   0.00000000000000E+00   3.02253303577118E-19
      1.95705109754745E-42   3.02253303577118E-19   2.30919869222671E-15   0.00000000000000E+00   0.00000000000000E+00
      0.00000000000000E+00   0.00000000000000E+00   0.00000000000000E+00   0.00000000000000E+00   0.00000000000000E+00
      1.00621014712183E-15  -1.80000000000000E+00  -1.80000000000000E+00   0.00000000000000E+00   0.00000000000000E+00
     -6.11818850014828E-19  -2.32319281793927E-42  -6.11818850014828E-19  -5.72336967464882E-15   9.00000000000000E-02
      9.00000000000000E-02   0.00000000000000E+00   0.00000000000000E+00   3.09565546437710E-19   3.66141720391813E-43
      3.09565546437710E-19   2.40796083530028E-15
      1.00000000000000E-01
      0.00000000000000E+00   0.00000000000000E+00   0.00000000000000E+00   0.00000000000000E+00   3.03938727934295E-19
      2.05449852404602E-42   3.03938727934295E-19   2.30919862602888E-15   0.00000000000000E+00   0.00000000000000E+00
      0.00000000000000E+00   0.00000000000000E+00   0.00000000000000E+00   0.00000000000000E+00   0.00000000000000E+00
      9.52113423466109E-16  -1.80000000000000E+00  -1.80000000000000E+00   0.00000000000000E+00   0.00000000000000E+00
     -1.19243857017533E-17  -2.10065848358730E-42  -1.19243857017533E-17  -5.76608172759924E-15   1.80000000000000E-01
      1.80000000000000E-01   0.00000000000000E+00   0.00000000000000E+00   1.16204469738190E-17   4.61599595412770E-44
      1.16204469738190E-17   2.50476967810424E-15
      1.50000000000000E-01
      0.00000000000000E+00   0.00000000000000E+00   0.00000000000000E+00   0.00000000000000E+00   3.00951279378525E-19
      3.02129330626148E-42   3.00951279378525E-19   2.30919856005172E-15   0.00000000000000E+00   0.00000000000000E+00
      0.00000000000000E+00   0.00000000000000E+00   0.00000000000000E+00   0.00000000000000E+00   0.00000000000000E+00
      8.99105707566480E-16  -1.80000000000000E+00  -1.80000000000000E+00   0.00000000000000E+00   0.00000000000000E+00
     -1.14053355234238E-18  -3.02759683325897E-42  -1.14053355234238E-18  -5.80807035436928E-15   2.70000000000000E-01
      2.70000000000000E-01   0.00000000000000E+00   0.00000000000000E+00   8.39582272963859E-19   6.30352699749035E-45
      8.39582272963859E-19   2.59976608675108E-15
      2.00000000000000E-01
      0.00000000000000E+00   0.00000000000000E+00   0.00000000000000E+00   0.00000000000000E+00   2.95440064728161E-19
      3.04460201988452E-42   2.95440064728161E-19   2.30919849391525E-15   0.00000000000000E+00   0.00000000000000E+00
      0.00000000000000E+00   0.00000000000000E+00   0.00000000000000E+00   0.00000000000000E+00   0.00000000000000E+00
      8.46903823462062E-16  -1.80000000000000E+00  -1.80000000000000E+00   0.00000000000000E+00   0.00000000000000E+00
     -6.10135659540813E-19  -3.04506478234282E-42  -6.10135659540813E-19  -5.84923874924725E-15   3.60000000000000E-01
      3.60000000000000E-01   0.00000000000000E+00   0.00000000000000E+00   3.14695594812653E-19   4.62762458296833E-46
      3.14695594812653E-19   2.69313643186994E-15
      2.50000000000000E-01
      0.00000000000000E+00   0.00000000000000E+00   0.00000000000000E+00   0.00000000000000E+00   2.97862895878490E-19
      1.70359234761566E-42   2.97862895878490E-19   2.30919842748067E-15   0.00000000000000E+00   0.00000000000000E+00
      0.00000000000000E+00   0.00000000000000E+00   0.00000000000000E+00   0.00000000000000E+00   0.00000000000000E+00
      7.95431098590389E-16  -1.80000000000000E+00  -1.80000000000000E+00   0.00000000000000E+00   0.00000000000000E+00
     -6.14059021836096E-19  -1.70367184563788E-42  -6.14059021836096E-19  -5.88946563507795E-15   4.50000000000000E-01
      4.50000000000000E-01   0.00000000000000E+00   0.00000000000000E+00   3.16196125957605E-19   7.94980222216862E-47
      3.16196125957605E-19   2.78483610900690E-15
      3.00000000000000E-01
      0.00000000000000E+00   0.00000000000000E+00   0.00000000000000E+00   0.00000000000000E+00   3.02214408629750E-19
      2.76950489860486E-42   3.02214408629750E-19   2.30919836082354E-15   0.00000000000000E+00   0.00000000000000E+00
      0.00000000000000E+00   0.00000000000000E+00   0.00000000000000E+00   0.00000000000000E+00   0.00000000000000E+00
      7.44827266307357E-16  -1.80000000000000E+00  -1.80000000000000E+00   0.00000000000000E+00   0.00000000000000E+00
     -6.19868359556411E-19  -2.76952480125236E-42  -6.19868359556411E-19  -5.92867285569337E-15   5.40000000000000E-01
      5.40000000000000E-01   0.00000000000000E+00   0.00000000000000E+00   3.17653950926661E-19   1.99026474918196E-47
      3.17653950926661E-19   2.87464722856247E-15
      3.50000000000000E-01
      0.00000000000000E+00   0.00000000000000E+00   0.00000000000000E+00   0.00000000000000E+00   3.01498098661549E-19
      1.48708580168545E-42   3.01498098661549E-19   2.30919829417637E-15   0.00000000000000E+00   0.00000000000000E+00
      0.00000000000000E+00   0.00000000000000E+00   0.00000000000000E+00   0.00000000000000E+00   0.00000000000000E+00
      6.95375910127424E-16  -1.80000000000000E+00  -1.80000000000000E+00   0.00000000000000E+00   0.00000000000000E+00
     -6.19486470758717E-19  -1.48708889113881E-42  -6.19486470758717E-19  -5.96687300118600E-15   6.30000000000000E-01
      6.30000000000000E-01   0.00000000000000E+00   0.00000000000000E+00   3.17988372097169E-19   3.08945335958777E-48
      3.17988372097169E-19   2.96229879688221E-15
      4.00000000000000E-01
      0.00000000000000E+00   0.00000000000000E+00   0.00000000000000E+00   0.00000000000000E+00   2.98101692943288E-19
      2.38889652613530E-42   2.98101692943288E-19   2.30919822788486E-15   0.00000000000000E+00   0.00000000000000E+00
      0.00000000000000E+00   0.00000000000000E+00   0.00000000000000E+00   0.00000000000000E+00   0.00000000000000E+00
      6.47383271183582E-16  -1.80000000000000E+00  -1.80000000000000E+00   0.00000000000000E+00   0.00000000000000E+00
     -6.18312879193788E-19  -2.38889689708861E-42  -6.18312879193788E-19  -6.00415668870998E-15   7.20000000000000E-01
      7.20000000000000E-01   0.00000000000000E+00   0.00000000000000E+00   3.20211186250500E-19   3.70953317032649E-49
      3.20211186250500E-19   3.04757518964153E-15
      4.50000000000000E-01
      0.00000000000000E+00   0.00000000000000E+00   0.00000000000000E+00   0.00000000000000E+00   3.03254127959998E-19
      1.36063342802249E-42   3.03254127959998E-19   2.30919816224061E-15   0.00000000000000E+00   0.00000000000000E+00
      0.00000000000000E+00   0.00000000000000E+00   0.00000000000000E+00   0.00000000000000E+00   0.00000000000000E+00
      6.00931518812468E-16  -1.80000000000000E+00  -1.80000000000000E+00   0.00000000000000E+00   0.00000000000000E+00
     -6.25290876469925E-19  -1.36063351000665E-42  -6.25290876469925E-19  -6.04067483040428E-15   8.10000000000000E-01
      8.10000000000000E-01   0.00000000000000E+00   0.00000000000000E+00   3.22036748509927E-19   8.19841526439260E-50
      3.22036748509927E-19   3.13054514935119E-15
      5.00000000000000E-01
      0.00000000000000E+00   0.00000000000000E+00   0.00000000000000E+00   0.00000000000000E+00   2.97492107642370E-19
      2.00120768103516E-42   2.97492107642370E-19   2.30919809724868E-15   0.00000000000000E+00   0.00000000000000E+00
      0.00000000000000E+00   0.00000000000000E+00   0.00000000000000E+00   0.00000000000000E+00   0.00000000000000E+00
      5.55734809739939E-16  -1.80000000000000E+00  -1.80000000000000E+00   0.00000000000000E+00   0.00000000000000E+00
     -6.20846730381053E-19  -2.00120769089778E-42  -6.20846730381053E-19  -6.07658698538630E-15   9.00000000000000E-01
      9.00000000000000E-01   0.00000000000000E+00   0.00000000000000E+00   3.23354622738683E-19   9.86262014153509E-51
      3.23354622738683E-19   3.21165407839767E-15
      5.50000000000000E-01
      0.00000000000000E+00   0.00000000000000E+00   0.00000000000000E+00   0.00000000000000E+00   3.00282069068982E-19
      2.44859353555263E-42   3.00282069068982E-19   2.30919803280865E-15   0.00000000000000E+00   0.00000000000000E+00
      0.00000000000000E+00   0.00000000000000E+00   0.00000000000000E+00   0.00000000000000E+00   0.00000000000000E+00
      5.11460191625220E-16  -1.80000000000000E+00  -1.80000000000000E+00   0.00000000000000E+00   0.00000000000000E+00
     -6.24876051334242E-19  -2.44859353640392E-42  -6.24876051334242E-19  -6.11199585293237E-15   9.90000000000000E-01
      9.90000000000000E-01   0.00000000000000E+00   0.00000000000000E+00   3.24593982265261E-19   8.51294402788554E-52
      3.24593982265261E-19   3.29133762849852E-15
      6.00000000000000E-01
      0.00000000000000E+00   0.00000000000000E+00   0.00000000000000E+00   0.00000000000000E+00   3.06668338645804E-19
      1.41927985163130E-42   3.06668338645804E-19   2.30919796905601E-15   0.00000000000000E+00   0.00000000000000E+00
      0.00000000000000E+00   0.00000000000000E+00   0.00000000000000E+00   0.00000000000000E+00   0.00000000000000E+00
      4.68017682696473E-16  -1.80000000000000E+00  -1.80000000000000E+00   0.00000000000000E+00   0.00000000000000E+00
     -6.32466197715717E-19  -1.41927985173586E-42  -6.32466197715717E-19  -6.14693407706316E-15   1.08000000000000E+00
      1.08000000000000E+00   0.00000000000000E+00   0.00000000000000E+00   3.25797859069914E-19   1.04555887829880E-52
      3.25797859069914E-19   3.36971842531068E-15
      6.50000000000000E-01
      0.00000000000000E+00   0.00000000000000E+00   0.00000000000000E+00   0.00000000000000E+00   2.99459902535478E-19
      3.08994105199811E-42   2.99459902535478E-19   2.30919790642312E-15   0.00000000000000E+00   0.00000000000000E+00
      0.00000000000000E+00   0.00000000000000E+00   0.00000000000000E+00   0.00000000000000E+00   0.00000000000000E+00
      4.25493458674768E-16  -1.80000000000000E+00  -1.80000000000000E+00   0.00000000000000E+00   0.00000000000000E+00
     -6.26434673102691E-19  -3.08994105200847E-42  -6.26434673102691E-19  -6.18139178388235E-15   1.17000000000000E+00
      1.17000000000000E+00   0.00000000000000E+00   0.00000000000000E+00   3.26974770567213E-19   1.03543783829726E-53
      3.26974770567213E-19   3.44670041878445E-15
      7.00000000000000E-01
      0.00000000000000E+00   0.00000000000000E+00   0.00000000000000E+00   0.00000000000000E+00   3.00564761027366E-19
      2.94904286175475E-42   3.00564761027366E-19   2.30919784531677E-15   0.00000000000000E+00   0.00000000000000E+00
      0.00000000000000E+00   0.00000000000000E+00   0.00000000000000E+00   0.00000000000000E+00   0.00000000000000E+00
      3.83953163653686E-16  -1.80000000000000E+00  -1.80000000000000E+00   0.00000000000000E+00   0.00000000000000E+00
     -6.28687994468935E-19  -2.94904286175755E-42  -6.28687994468935E-19  -6.21536291537249E-15   1.26000000000000E+00
      1.26000000000000E+00   0.00000000000000E+00   0.00000000000000E+00   3.28123233441569E-19   2.79824482521238E-54
      3.28123233441569E-19   3.52221190640202E-15
      7.50000000000000E-01
      0.00000000000000E+00   0.00000000000000E+00   0.00000000000000E+00   0.00000000000000E+00   2.97751985707198E-19
      2.41638620314019E-42   2.97751985707198E-19   2.30919778542137E-15   0.00000000000000E+00   0.00000000000000E+00
      0.00000000000000E+00   0.00000000000000E+00   0.00000000000000E+00   0.00000000000000E+00   0.00000000000000E+00
      3.43248232135936E-16  -1.80000000000000E+00  -1.80000000000000E+00   0.00000000000000E+00   0.00000000000000E+00
     -6.26990812014631E-19  -2.41638620314039E-42  -6.26990812014631E-19  -6.24889744016465E-15   1.35000000000000E+00
      1.35000000000000E+00   0.00000000000000E+00   0.00000000000000E+00   3.29238826307434E-19   2.01297378775729E-55
      3.29238826307434E-19   3.59645142260734E-15
      8.00000000000000E-01
      0.00000000000000E+00   0.00000000000000E+00   0.00000000000000E+00   0.00000000000000E+00   2.96046615381076E-19
      2.88337893356439E-42   2.96046615381076E-19   2.30919772585369E-15   0.00000000000000E+00   0.00000000000000E+00
      0.00000000000000E+00   0.00000000000000E+00   0.00000000000000E+00   0.00000000000000E+00   0.00000000000000E+00
      3.03089233643193E-16  -1.80000000000000E+00  -1.80000000000000E+00   0.00000000000000E+00   0.00000000000000E+00
     -6.26367542767499E-19  -2.88337893356442E-42  -6.26367542767499E-19  -6.28208356076579E-15   1.44000000000000E+00
      1.44000000000000E+00   0.00000000000000E+00   0.00000000000000E+00   3.30320927386422E-19   3.01218837541294E-56
      3.30320927386422E-19   3.66979660126891E-15
      8.50000000000000E-01
      0.00000000000000E+00   0.00000000000000E+00   0.00000000000000E+00   0.00000000000000E+00   3.03004516658789E-19
      1.34650096642593E-42   3.03004516658789E-19   2.30919766600697E-15   0.00000000000000E+00   0.00000000000000E+00
      0.00000000000000E+00   0.00000000000000E+00   0.00000000000000E+00   0.00000000000000E+00   0.00000000000000E+00
      2.63265197128851E-16  -1.80000000000000E+00  -1.80000000000000E+00   0.00000000000000E+00   0.00000000000000E+00
     -6.34378731140838E-19  -1.34650096642593E-42  -6.34378731140838E-19  -6.31498497982853E-15   1.53000000000000E+00
      1.53000000000000E+00   0.00000000000000E+00   0.00000000000000E+00   3.31374214482049E-19   4.38988145896068E-58
      3.31374214482049E-19   3.74252211669272E-15
      9.00000000000000E-01
      0.00000000000000E+00   0.00000000000000E+00   0.00000000000000E+00   0.00000000000000E+00   3.00713112837672E-19
      1.50204459259790E-42   3.00713112837672E-19   2.30919760565580E-15   0.00000000000000E+00   0.00000000000000E+00
      0.00000000000000E+00   0.00000000000000E+00   0.00000000000000E+00   0.00000000000000E+00   0.00000000000000E+00
      2.23669012220904E-16  -1.80000000000000E+00  -1.80000000000000E+00   0.00000000000000E+00   0.00000000000000E+00
     -6.33119382036342E-19  -1.50204459259790E-42  -6.33119382036342E-19  -6.34763020615261E-15   1.62000000000000E+00
      1.62000000000000E+00   0.00000000000000E+00   0.00000000000000E+00   3.32406269198670E-19   1.06093244737652E-57
      3.32406269198670E-19   3.81476358827591E-15
      9.50000000000000E-01
      0.00000000000000E+00   0.00000000000000E+00   0.00000000000000E+00   0.00000000000000E+00   2.92378656201570E-19
      1.83799663209182E-42   2.92378656201570E-19   2.30919754474632E-15   0.00000000000000E+00   0.00000000000000E+00
      0.00000000000000E+00   0.00000000000000E+00   0.00000000000000E+00   0.00000000000000E+00   0.00000000000000E+00
      1.84256305965465E-16  -1.80000000000000E+00  -1.80000000000000E+00   0.00000000000000E+00   0.00000000000000E+00
     -6.25802847277369E-19  -1.83799663209182E-42  -6.25802847277369E-19  -6.38002819166712E-15   1.71000000000000E+00
      1.71000000000000E+00   0.00000000000000E+00   0.00000000000000E+00   3.33424191075799E-19  -1.01934203360887E-57
      3.33424191075799E-19   3.88657434095533E-15
      1.00000000000000E+00
      0.00000000000000E+00   0.00000000000000E+00   0.00000000000000E+00   0.00000000000000E+00   3.00042613223095E-19
      1.16998998007842E-42   3.00042613223095E-19   2.30919748328789E-15   0.00000000000000E+00   0.00000000000000E+00
      0.00000000000000E+00   0.00000000000000E+00   0.00000000000000E+00   0.00000000000000E+00   0.00000000000000E+00
      1.45027877728915E-16  -1.80000000000000E+00  -1.80000000000000E+00   0.00000000000000E+00   0.00000000000000E+00
     -6.34474534448610E-19  -1.16998998007842E-42  -6.34474534448610E-19  -6.41218157414313E-15   1.80000000000000E+00
      1.80000000000000E+00   0.00000000000000E+00   0.00000000000000E+00   3.34431921225515E-19  -4.78474031044450E-58
      3.34431921225515E-19   3.95795621312632E-15
}
