DF-ISE text

Info {
  version   = 1.0
  type      = xyplot
  datasets  = [
    "time"
    "source OuterVoltage" "source InnerVoltage" "source QuasiFermiPotential" "source DisplacementCurrent" "source eCurrent"
    "source hCurrent" "source TotalCurrent" "source Charge" "gate OuterVoltage" "gate InnerVoltage"
    "gate QuasiFermiPotential" "gate DisplacementCurrent" "gate eCurrent" "gate hCurrent" "gate TotalCurrent"
    "gate Charge" "substrate OuterVoltage" "substrate InnerVoltage" "substrate QuasiFermiPotential" "substrate DisplacementCurrent"
    "substrate eCurrent" "substrate hCurrent" "substrate TotalCurrent" "substrate Charge" "drain OuterVoltage"
    "drain InnerVoltage" "drain QuasiFermiPotential" "drain DisplacementCurrent" "drain eCurrent" "drain hCurrent"
    "drain TotalCurrent" "drain Charge" ]
  functions = [
    Time
    OuterVoltage InnerVoltage QuasiFermiPotential DisplacementCurrent eCurrent
    hCurrent TotalCurrent Charge OuterVoltage InnerVoltage
    QuasiFermiPotential DisplacementCurrent eCurrent hCurrent TotalCurrent
    Charge OuterVoltage InnerVoltage QuasiFermiPotential DisplacementCurrent
    eCurrent hCurrent TotalCurrent Charge OuterVoltage
    InnerVoltage QuasiFermiPotential DisplacementCurrent eCurrent hCurrent
    TotalCurrent Charge ]
}

Data {
      5.00000000000000E-02
      0.00000000000000E+00   0.00000000000000E+00   0.00000000000000E+00   0.00000000000000E+00  -2.12444110370955E-05
     -5.09737370686564E-43  -2.12444110370955E-05   1.55494028204117E-15   1.80000000000000E+00   1.80000000000000E+00
      0.00000000000000E+00   0.00000000000000E+00   0.00000000000000E+00   0.00000000000000E+00   0.00000000000000E+00
      1.53543887737474E-14  -1.80000000000000E+00  -1.80000000000000E+00   0.00000000000000E+00   0.00000000000000E+00
      5.38757912825749E-18   5.44385360127271E-43   5.38757912825749E-18  -1.85315412146666E-14   9.00000000000000E-02
      9.00000000000000E-02   0.00000000000000E+00   0.00000000000000E+00   2.12444110370901E-05  -3.46479894407079E-44
      2.12444110370901E-05   1.62221215887808E-15
      1.00000000000000E-01
      0.00000000000000E+00   0.00000000000000E+00   0.00000000000000E+00   0.00000000000000E+00  -3.91533525545619E-05
     -4.52454011438213E-43  -3.91533525545619E-05   1.55515008657923E-15   1.80000000000000E+00   1.80000000000000E+00
      0.00000000000000E+00   0.00000000000000E+00   0.00000000000000E+00   0.00000000000000E+00   0.00000000000000E+00
      1.48478415862875E-14  -1.80000000000000E+00  -1.80000000000000E+00   0.00000000000000E+00   0.00000000000000E+00
      2.37451811536507E-17   4.67067972915657E-43   2.37451811536507E-17  -1.80923484175966E-14   1.80000000000000E-01
      1.80000000000000E-01   0.00000000000000E+00   0.00000000000000E+00   3.91533525545382E-05  -1.46139614774439E-44
      3.91533525545382E-05   1.68935674472983E-15
      1.50000000000000E-01
      0.00000000000000E+00   0.00000000000000E+00   0.00000000000000E+00   0.00000000000000E+00  -5.38840532693378E-05
     -2.02565633629692E-43  -5.38840532693378E-05   1.55531605250063E-15   1.80000000000000E+00   1.80000000000000E+00
      0.00000000000000E+00   0.00000000000000E+00   0.00000000000000E+00   0.00000000000000E+00   0.00000000000000E+00
      1.43680047058177E-14  -1.80000000000000E+00  -1.80000000000000E+00   0.00000000000000E+00   0.00000000000000E+00
     -9.93387840529629E-18   2.04489120350446E-43  -9.93387840529629E-18  -1.76793664772830E-14   2.70000000000000E-01
      2.70000000000000E-01   0.00000000000000E+00   0.00000000000000E+00   5.38840532693477E-05  -1.92348672075340E-45
      5.38840532693477E-05   1.75604571896469E-15
      2.00000000000000E-01
      0.00000000000000E+00   0.00000000000000E+00   0.00000000000000E+00   0.00000000000000E+00  -6.56323025988976E-05
     -1.11677663386381E-43  -6.56323025988976E-05   1.55544379590068E-15   1.80000000000000E+00   1.80000000000000E+00
      0.00000000000000E+00   0.00000000000000E+00   0.00000000000000E+00   0.00000000000000E+00   0.00000000000000E+00
      1.39212687402751E-14  -1.80000000000000E+00  -1.80000000000000E+00   0.00000000000000E+00   0.00000000000000E+00
     -2.49452544762008E-17   1.11807258208114E-43  -2.49452544762008E-17  -1.72988888669954E-14   3.60000000000000E-01
      3.60000000000000E-01   0.00000000000000E+00   0.00000000000000E+00   6.56323025989224E-05  -1.29594821732506E-46
      6.56323025989224E-05   1.82217633081967E-15
      2.50000000000000E-01
      0.00000000000000E+00   0.00000000000000E+00   0.00000000000000E+00   0.00000000000000E+00  -7.46157970990749E-05
     -5.19257599103981E-43  -7.46157970990749E-05   1.55553853740520E-15   1.80000000000000E+00   1.80000000000000E+00
      0.00000000000000E+00   0.00000000000000E+00   0.00000000000000E+00   0.00000000000000E+00   0.00000000000000E+00
      1.35151630526473E-14  -1.80000000000000E+00  -1.80000000000000E+00   0.00000000000000E+00   0.00000000000000E+00
      4.73689449116276E-18   5.19285313765768E-43   4.73689449116276E-18  -1.69583709715533E-14   4.50000000000000E-01
      4.50000000000000E-01   0.00000000000000E+00   0.00000000000000E+00   7.46157970990701E-05  -2.77146617867948E-47
      7.46157970990701E-05   1.88766938150080E-15
      3.00000000000000E-01
      0.00000000000000E+00   0.00000000000000E+00   0.00000000000000E+00   0.00000000000000E+00  -8.10831681009514E-05
     -2.90512389179559E-43  -8.10831681009514E-05   1.55560509143028E-15   1.80000000000000E+00   1.80000000000000E+00
      0.00000000000000E+00   0.00000000000000E+00   0.00000000000000E+00   0.00000000000000E+00   0.00000000000000E+00
      1.31579161606223E-14  -1.80000000000000E+00  -1.80000000000000E+00   0.00000000000000E+00   0.00000000000000E+00
     -3.48270975601922E-18   2.90511919837607E-43  -3.48270975601922E-18  -1.66661237663300E-14   5.40000000000000E-01
      5.40000000000000E-01   0.00000000000000E+00   0.00000000000000E+00   8.10831681009548E-05   4.69341951927526E-49
      8.10831681009548E-05   1.95260251427738E-15
      3.50000000000000E-01
      0.00000000000000E+00   0.00000000000000E+00   0.00000000000000E+00   0.00000000000000E+00  -8.53431863852307E-05
     -8.08687635401002E-44  -8.53431863852307E-05   1.55564814884072E-15   1.80000000000000E+00   1.80000000000000E+00
      0.00000000000000E+00   0.00000000000000E+00   0.00000000000000E+00   0.00000000000000E+00   0.00000000000000E+00
      1.28570543675285E-14  -1.80000000000000E+00  -1.80000000000000E+00   0.00000000000000E+00   0.00000000000000E+00
     -7.47289996121593E-18   8.08685924894344E-44  -7.47289996121593E-18  -1.64299821410040E-14   6.30000000000000E-01
      6.30000000000000E-01   0.00000000000000E+00   0.00000000000000E+00   8.53431863852380E-05   1.71050665659214E-49
      8.53431863852380E-05   2.01727962463478E-15
      4.00000000000000E-01
      0.00000000000000E+00   0.00000000000000E+00   0.00000000000000E+00   0.00000000000000E+00  -8.78047389785758E-05
     -3.48601003364903E-43  -8.78047389785758E-05   1.55567273921225E-15   1.80000000000000E+00   1.80000000000000E+00
      0.00000000000000E+00   0.00000000000000E+00   0.00000000000000E+00   0.00000000000000E+00   0.00000000000000E+00
      1.26165547482790E-14  -1.80000000000000E+00  -1.80000000000000E+00   0.00000000000000E+00   0.00000000000000E+00
     -4.50350420381104E-16   3.48601008079201E-43  -4.50350420381104E-16  -1.62543958088240E-14   7.20000000000000E-01
      7.20000000000000E-01   0.00000000000000E+00   0.00000000000000E+00   8.78047389790260E-05  -4.71429839607882E-51
      8.78047389790260E-05   2.08216832133273E-15
      4.50000000000000E-01
      0.00000000000000E+00   0.00000000000000E+00   0.00000000000000E+00   0.00000000000000E+00  -8.89971978042075E-05
     -2.60729855094417E-43  -8.89971978042075E-05   1.55568457436714E-15   1.80000000000000E+00   1.80000000000000E+00
      0.00000000000000E+00   0.00000000000000E+00   0.00000000000000E+00   0.00000000000000E+00   0.00000000000000E+00
      1.24325942518241E-14  -1.80000000000000E+00  -1.80000000000000E+00   0.00000000000000E+00   0.00000000000000E+00
     -2.02453788133106E-17   2.60729863550346E-43  -2.02453788133106E-17  -1.61361388524113E-14   8.10000000000000E-01
      8.10000000000000E-01   0.00000000000000E+00   0.00000000000000E+00   8.89971978042277E-05  -8.45592851326263E-51
      8.89971978042277E-05   2.14786002622007E-15
      5.00000000000000E-01
      0.00000000000000E+00   0.00000000000000E+00   0.00000000000000E+00   0.00000000000000E+00  -8.95067586296429E-05
     -3.27168276734109E-43  -8.95067586296429E-05   1.55568961627187E-15   1.80000000000000E+00   1.80000000000000E+00
      0.00000000000000E+00   0.00000000000000E+00   0.00000000000000E+00   0.00000000000000E+00   0.00000000000000E+00
      1.22901641360843E-14  -1.80000000000000E+00  -1.80000000000000E+00   0.00000000000000E+00   0.00000000000000E+00
      4.43409225561534E-18   3.27168277555601E-43   4.43409225561534E-18  -1.60607956403609E-14   9.00000000000000E-01
      9.00000000000000E-01   0.00000000000000E+00   0.00000000000000E+00   8.95067586296383E-05  -8.21492298061796E-52
      8.95067586296383E-05   2.21494188800471E-15
      5.50000000000000E-01
      0.00000000000000E+00   0.00000000000000E+00   0.00000000000000E+00   0.00000000000000E+00  -8.97858037902820E-05
     -5.67606699674432E-43  -8.97858037902820E-05   1.55569237337131E-15   1.80000000000000E+00   1.80000000000000E+00
      0.00000000000000E+00   0.00000000000000E+00   0.00000000000000E+00   0.00000000000000E+00   0.00000000000000E+00
      1.21686221766073E-14  -1.80000000000000E+00  -1.80000000000000E+00   0.00000000000000E+00   0.00000000000000E+00
      4.74235784403444E-18   5.67606699586990E-43   4.74235784403444E-18  -1.60080782037018E-14   9.90000000000000E-01
      9.90000000000000E-01   0.00000000000000E+00   0.00000000000000E+00   8.97858037902772E-05   8.74423160047168E-53
      8.97858037902772E-05   2.28376365372314E-15
      6.00000000000000E-01
      0.00000000000000E+00   0.00000000000000E+00   0.00000000000000E+00   0.00000000000000E+00  -8.99904360953928E-05
     -5.98198395061175E-43  -8.99904360953928E-05   1.55569439345963E-15   1.80000000000000E+00   1.80000000000000E+00
      0.00000000000000E+00   0.00000000000000E+00   0.00000000000000E+00   0.00000000000000E+00   0.00000000000000E+00
      1.20594054111971E-14  -1.80000000000000E+00  -1.80000000000000E+00   0.00000000000000E+00   0.00000000000000E+00
      9.99497091323602E-18   5.98198395074303E-43   9.99497091323602E-18  -1.59699327568869E-14   1.08000000000000E+00
      1.08000000000000E+00   0.00000000000000E+00   0.00000000000000E+00   8.99904360953827E-05  -1.31281762507492E-53
      8.99904360953827E-05   2.35483295223014E-15
      6.50000000000000E-01
      0.00000000000000E+00   0.00000000000000E+00   0.00000000000000E+00   0.00000000000000E+00  -9.01556365136585E-05
     -6.76195843474132E-43  -9.01556365136585E-05   1.55569602318653E-15   1.80000000000000E+00   1.80000000000000E+00
      0.00000000000000E+00   0.00000000000000E+00   0.00000000000000E+00   0.00000000000000E+00   0.00000000000000E+00
      1.19603566920982E-14  -1.80000000000000E+00  -1.80000000000000E+00   0.00000000000000E+00   0.00000000000000E+00
      7.37013994954503E-18   6.76195843475222E-43   7.37013994954503E-18  -1.59447560518101E-14   1.17000000000000E+00
      1.17000000000000E+00   0.00000000000000E+00   0.00000000000000E+00   9.01556365136510E-05  -1.08899295086700E-54
      9.01556365136510E-05   2.42870333652531E-15
      7.00000000000000E-01
      0.00000000000000E+00   0.00000000000000E+00   0.00000000000000E+00   0.00000000000000E+00  -9.02973580242523E-05
     -3.06272210286094E-43  -9.02973580242523E-05   1.55569742050814E-15   1.80000000000000E+00   1.80000000000000E+00
      0.00000000000000E+00   0.00000000000000E+00   0.00000000000000E+00   0.00000000000000E+00   0.00000000000000E+00
      1.18705041043788E-14  -1.80000000000000E+00  -1.80000000000000E+00   0.00000000000000E+00   0.00000000000000E+00
     -1.09397039088791E-17   3.06272210286233E-43  -1.09397039088791E-17  -1.59321884883489E-14   1.26000000000000E+00
      1.26000000000000E+00   0.00000000000000E+00   0.00000000000000E+00   9.02973580242631E-05  -1.39039528549763E-55
      9.02973580242631E-05   2.50598696346196E-15
      7.50000000000000E-01
      0.00000000000000E+00   0.00000000000000E+00   0.00000000000000E+00   0.00000000000000E+00  -9.04252123055477E-05
     -3.55014974508026E-43  -9.04252123055477E-05   1.55569868048364E-15   1.80000000000000E+00   1.80000000000000E+00
      0.00000000000000E+00   0.00000000000000E+00   0.00000000000000E+00   0.00000000000000E+00   0.00000000000000E+00
      1.17887436342694E-14  -1.80000000000000E+00  -1.80000000000000E+00   0.00000000000000E+00   0.00000000000000E+00
     -6.76205777578481E-18   3.55014974508021E-43  -6.76205777578481E-18  -1.59324247916544E-14   1.35000000000000E+00
      1.35000000000000E+00   0.00000000000000E+00   0.00000000000000E+00   9.04252123055544E-05   5.65847829028700E-57
      9.04252123055544E-05   2.58798247690131E-15
      8.00000000000000E-01
      0.00000000000000E+00   0.00000000000000E+00   0.00000000000000E+00   0.00000000000000E+00  -9.05458820459658E-05
     -6.51899315972986E-43  -9.05458820459658E-05   1.55569986911694E-15   1.80000000000000E+00   1.80000000000000E+00
      0.00000000000000E+00   0.00000000000000E+00   0.00000000000000E+00   0.00000000000000E+00   0.00000000000000E+00
      1.17137180962188E-14  -1.80000000000000E+00  -1.80000000000000E+00   0.00000000000000E+00   0.00000000000000E+00
     -1.15187924206844E-18   6.51899315972988E-43  -1.15187924206844E-18  -1.59451225865285E-14   1.44000000000000E+00
      1.44000000000000E+00   0.00000000000000E+00   0.00000000000000E+00   9.05458820459668E-05  -2.10080465844258E-57
      9.05458820459668E-05   2.67570462119278E-15
      8.50000000000000E-01
      0.00000000000000E+00   0.00000000000000E+00   0.00000000000000E+00   0.00000000000000E+00  -9.06611504962596E-05
     -6.26868828413279E-43  -9.06611504962596E-05   1.55570100405576E-15   1.80000000000000E+00   1.80000000000000E+00
      0.00000000000000E+00   0.00000000000000E+00   0.00000000000000E+00   0.00000000000000E+00   0.00000000000000E+00
      1.16436792158928E-14  -1.80000000000000E+00  -1.80000000000000E+00   0.00000000000000E+00   0.00000000000000E+00
     -8.45006686973709E-13   6.26868828413279E-43  -8.45006686973709E-13  -1.59665476964096E-14   1.53000000000000E+00
      1.53000000000000E+00   0.00000000000000E+00   0.00000000000000E+00   9.06611513412662E-05   2.86946672867091E-58
      9.06611513412662E-05   2.76716747646109E-15
      9.00000000000000E-01
      0.00000000000000E+00   0.00000000000000E+00   0.00000000000000E+00   0.00000000000000E+00  -9.07708189926705E-05
     -1.79764530106562E-43  -9.07708189926705E-05   1.55570208341229E-15   1.80000000000000E+00   1.80000000000000E+00
      0.00000000000000E+00   0.00000000000000E+00   0.00000000000000E+00   0.00000000000000E+00   0.00000000000000E+00
      1.15768388050154E-14  -1.80000000000000E+00  -1.80000000000000E+00   0.00000000000000E+00   0.00000000000000E+00
      1.55612624380554E-15   1.79764530106562E-43   1.55612624380554E-15  -1.59916554048050E-14   1.62000000000000E+00
      1.62000000000000E+00   0.00000000000000E+00   0.00000000000000E+00   9.07708189911143E-05  -2.68619705333451E-59
      9.07708189911143E-05   2.85911451637735E-15
      9.50000000000000E-01
      0.00000000000000E+00   0.00000000000000E+00   0.00000000000000E+00   0.00000000000000E+00  -9.08746853447417E-05
     -6.74338682459131E-43  -9.08746853447417E-05   1.55570310526396E-15   1.80000000000000E+00   1.80000000000000E+00
      0.00000000000000E+00   0.00000000000000E+00   0.00000000000000E+00   0.00000000000000E+00   0.00000000000000E+00
      1.15125393222180E-14  -1.80000000000000E+00  -1.80000000000000E+00   0.00000000000000E+00   0.00000000000000E+00
      2.51100999705030E-15   6.74338682459131E-43   2.51100999705030E-15  -1.60178834481461E-14   1.71000000000000E+00
      1.71000000000000E+00   0.00000000000000E+00   0.00000000000000E+00   9.08746853422305E-05   5.72572498770599E-60
      9.08746853422305E-05   2.94964102066412E-15
      1.00000000000000E+00
      0.00000000000000E+00   0.00000000000000E+00   0.00000000000000E+00   0.00000000000000E+00  -9.09728574542410E-05
     -1.75625706414753E-43  -9.09728574542410E-05   1.55570407073678E-15   1.80000000000000E+00   1.80000000000000E+00
      0.00000000000000E+00   0.00000000000000E+00   0.00000000000000E+00   0.00000000000000E+00   0.00000000000000E+00
      1.14507666286391E-14  -1.80000000000000E+00  -1.80000000000000E+00   0.00000000000000E+00   0.00000000000000E+00
      1.73745093511462E-14   1.75625706414753E-43   1.73745093511462E-14  -1.60444754672804E-14   1.80000000000000E+00
      1.80000000000000E+00   0.00000000000000E+00   0.00000000000000E+00   9.09728574368664E-05   9.24068203850022E-61
      9.09728574368664E-05   3.03800476790455E-15
}
