DF-ISE text

Info {
  version   = 1.0
  type      = xyplot
  datasets  = [
    "time"
    "source OuterVoltage" "source InnerVoltage" "source QuasiFermiPotential" "source DisplacementCurrent" "source eCurrent"
    "source hCurrent" "source TotalCurrent" "source Charge" "gate OuterVoltage" "gate InnerVoltage"
    "gate QuasiFermiPotential" "gate DisplacementCurrent" "gate eCurrent" "gate hCurrent" "gate TotalCurrent"
    "gate Charge" "substrate OuterVoltage" "substrate InnerVoltage" "substrate QuasiFermiPotential" "substrate DisplacementCurrent"
    "substrate eCurrent" "substrate hCurrent" "substrate TotalCurrent" "substrate Charge" "drain OuterVoltage"
    "drain InnerVoltage" "drain QuasiFermiPotential" "drain DisplacementCurrent" "drain eCurrent" "drain hCurrent"
    "drain TotalCurrent" "drain Charge" ]
  functions = [
    Time
    OuterVoltage InnerVoltage QuasiFermiPotential DisplacementCurrent eCurrent
    hCurrent TotalCurrent Charge OuterVoltage InnerVoltage
    QuasiFermiPotential DisplacementCurrent eCurrent hCurrent TotalCurrent
    Charge OuterVoltage InnerVoltage QuasiFermiPotential DisplacementCurrent
    eCurrent hCurrent TotalCurrent Charge OuterVoltage
    InnerVoltage QuasiFermiPotential DisplacementCurrent eCurrent hCurrent
    TotalCurrent Charge ]
}

Data {
      5.00000000000000E-02
      0.00000000000000E+00   0.00000000000000E+00   0.00000000000000E+00   0.00000000000000E+00  -8.80384311787405E-06
     -2.77150831135127E-43  -8.80384311787405E-06   1.68054245071635E-15   1.35000000000000E+00   1.35000000000000E+00
      0.00000000000000E+00   0.00000000000000E+00   0.00000000000000E+00   0.00000000000000E+00   0.00000000000000E+00
      1.00807546933714E-14  -1.80000000000000E+00  -1.80000000000000E+00   0.00000000000000E+00   0.00000000000000E+00
     -7.27906467555601E-18   2.73297607489689E-43  -7.27906467555601E-18  -1.35109002056282E-14   9.00000000000000E-02
      9.00000000000000E-02   0.00000000000000E+00   0.00000000000000E+00   8.80384311788133E-06   3.85322364543740E-45
      8.80384311788133E-06   1.74960306154049E-15
      1.00000000000000E-01
      0.00000000000000E+00   0.00000000000000E+00   0.00000000000000E+00   0.00000000000000E+00  -1.46576221193751E-05
     -1.09320061429410E-43  -1.46576221193751E-05   1.68056379004195E-15   1.35000000000000E+00   1.35000000000000E+00
      0.00000000000000E+00   0.00000000000000E+00   0.00000000000000E+00   0.00000000000000E+00   0.00000000000000E+00
      9.64570718495590E-15  -1.80000000000000E+00  -1.80000000000000E+00   0.00000000000000E+00   0.00000000000000E+00
     -5.99967235251182E-18   1.19693912748633E-43  -5.99967235251182E-18  -1.31448890788672E-14   1.80000000000000E-01
      1.80000000000000E-01   0.00000000000000E+00   0.00000000000000E+00   1.46576221193811E-05  -1.03738513192232E-44
      1.46576221193811E-05   1.81861810386935E-15
      1.50000000000000E-01
      0.00000000000000E+00   0.00000000000000E+00   0.00000000000000E+00   0.00000000000000E+00  -1.79300449223211E-05
     -6.62700473850799E-43  -1.79300449223211E-05   1.68057423593159E-15   1.35000000000000E+00   1.35000000000000E+00
      0.00000000000000E+00   0.00000000000000E+00   0.00000000000000E+00   0.00000000000000E+00   0.00000000000000E+00
      9.29426399245900E-15  -1.80000000000000E+00  -1.80000000000000E+00   0.00000000000000E+00   0.00000000000000E+00
     -2.42164025501895E-18   6.64090346062913E-43  -2.42164025501895E-18  -1.28624839642665E-14   2.70000000000000E-01
      2.70000000000000E-01   0.00000000000000E+00   0.00000000000000E+00   1.79300449223235E-05  -1.38987221211314E-45
      1.79300449223235E-05   1.88764573587590E-15
      2.00000000000000E-01
      0.00000000000000E+00   0.00000000000000E+00   0.00000000000000E+00   0.00000000000000E+00  -1.92551222195854E-05
     -5.28740415882172E-43  -1.92551222195854E-05   1.68057814644265E-15   1.35000000000000E+00   1.35000000000000E+00
      0.00000000000000E+00   0.00000000000000E+00   0.00000000000000E+00   0.00000000000000E+00   0.00000000000000E+00
      9.04474718932619E-15  -1.80000000000000E+00  -1.80000000000000E+00   0.00000000000000E+00   0.00000000000000E+00
     -4.63213182003118E-16   5.28864308890835E-43  -4.63213182003118E-16  -1.26822340904231E-14   3.60000000000000E-01
      3.60000000000000E-01   0.00000000000000E+00   0.00000000000000E+00   1.92551222200487E-05  -1.23893008662536E-46
      1.92551222200487E-05   1.95690875465430E-15
      2.50000000000000E-01
      0.00000000000000E+00   0.00000000000000E+00   0.00000000000000E+00   0.00000000000000E+00  -1.95889955702867E-05
     -7.15121449970130E-43  -1.95889955702867E-05   1.68057910198751E-15   1.35000000000000E+00   1.35000000000000E+00
      0.00000000000000E+00   0.00000000000000E+00   0.00000000000000E+00   0.00000000000000E+00   0.00000000000000E+00
      8.87829322394045E-15  -1.80000000000000E+00  -1.80000000000000E+00   0.00000000000000E+00   0.00000000000000E+00
     -8.31386877538086E-19   7.15118884272458E-43  -8.31386877538086E-19  -1.25857375016222E-14   4.50000000000000E-01
      4.50000000000000E-01   0.00000000000000E+00   0.00000000000000E+00   1.95889955702875E-05   2.56569767220280E-48
      1.95889955702875E-05   2.02686517569424E-15
      3.00000000000000E-01
      0.00000000000000E+00   0.00000000000000E+00   0.00000000000000E+00   0.00000000000000E+00  -1.96739358815231E-05
     -2.82315393356792E-43  -1.96739358815231E-05   1.68057934315726E-15   1.35000000000000E+00   1.35000000000000E+00
      0.00000000000000E+00   0.00000000000000E+00   0.00000000000000E+00   0.00000000000000E+00   0.00000000000000E+00
      8.75089767923432E-15  -1.80000000000000E+00  -1.80000000000000E+00   0.00000000000000E+00   0.00000000000000E+00
     -4.94129114046109E-18   2.82319654817189E-43  -4.94129114046109E-18  -1.25296466088528E-14   5.40000000000000E-01
      5.40000000000000E-01   0.00000000000000E+00   0.00000000000000E+00   1.96739358815280E-05  -4.26146039680046E-48
      1.96739358815280E-05   2.09816958646127E-15
      3.50000000000000E-01
      0.00000000000000E+00   0.00000000000000E+00   0.00000000000000E+00   0.00000000000000E+00  -1.97197201084784E-05
     -6.84154112821447E-43  -1.97197201084784E-05   1.68057947282633E-15   1.35000000000000E+00   1.35000000000000E+00
      0.00000000000000E+00   0.00000000000000E+00   0.00000000000000E+00   0.00000000000000E+00   0.00000000000000E+00
      8.64132087673075E-15  -1.80000000000000E+00  -1.80000000000000E+00   0.00000000000000E+00   0.00000000000000E+00
     -2.69992009869103E-16   6.84154287111727E-43  -2.69992009869103E-16  -1.24935019352395E-14   6.30000000000000E-01
      6.30000000000000E-01   0.00000000000000E+00   0.00000000000000E+00   1.97197201087484E-05  -1.74290279185526E-49
      1.97197201087484E-05   2.17160158568245E-15
      4.00000000000000E-01
      0.00000000000000E+00   0.00000000000000E+00   0.00000000000000E+00   0.00000000000000E+00  -1.97567548843389E-05
     -3.66228504302354E-43  -1.97567548843389E-05   1.68057957754852E-15   1.35000000000000E+00   1.35000000000000E+00
      0.00000000000000E+00   0.00000000000000E+00   0.00000000000000E+00   0.00000000000000E+00   0.00000000000000E+00
      8.54234161374294E-15  -1.80000000000000E+00  -1.80000000000000E+00   0.00000000000000E+00   0.00000000000000E+00
     -6.32389536038581E-16   3.66228562127147E-43  -6.32389536038581E-16  -1.24709056924711E-14   7.20000000000000E-01
      7.20000000000000E-01   0.00000000000000E+00   0.00000000000000E+00   1.97567548849713E-05  -5.78247936686669E-50
      1.97567548849713E-05   2.24798450117968E-15
      4.50000000000000E-01
      0.00000000000000E+00   0.00000000000000E+00   0.00000000000000E+00   0.00000000000000E+00  -1.97889194390809E-05
     -6.15179538197227E-43  -1.97889194390809E-05   1.68057966837814E-15   1.35000000000000E+00   1.35000000000000E+00
      0.00000000000000E+00   0.00000000000000E+00   0.00000000000000E+00   0.00000000000000E+00   0.00000000000000E+00
      8.45309802827867E-15  -1.80000000000000E+00  -1.80000000000000E+00   0.00000000000000E+00   0.00000000000000E+00
      3.07482162421319E-16   6.15179543507122E-43   3.07482162421319E-16  -1.24621890004441E-14   8.10000000000000E-01
      8.10000000000000E-01   0.00000000000000E+00   0.00000000000000E+00   1.97889194387734E-05  -5.30989430594958E-51
      1.97889194387734E-05   2.32851130378726E-15
      5.00000000000000E-01
      0.00000000000000E+00   0.00000000000000E+00   0.00000000000000E+00   0.00000000000000E+00  -1.98178681306527E-05
     -5.80908463499091E-43  -1.98178681306527E-05   1.68057975003010E-15   1.35000000000000E+00   1.35000000000000E+00
      0.00000000000000E+00   0.00000000000000E+00   0.00000000000000E+00   0.00000000000000E+00   0.00000000000000E+00
      8.37361106037435E-15  -1.80000000000000E+00  -1.80000000000000E+00   0.00000000000000E+00   0.00000000000000E+00
      1.07932961241956E-17   5.80908463817711E-43   1.07932961241956E-17  -1.24685570592786E-14   9.00000000000000E-01
      9.00000000000000E-01   0.00000000000000E+00   0.00000000000000E+00   1.98178681306419E-05  -3.18620084900830E-52
      1.98178681306419E-05   2.41436624887413E-15
      5.50000000000000E-01
      0.00000000000000E+00   0.00000000000000E+00   0.00000000000000E+00   0.00000000000000E+00  -1.98450161460868E-05
     -3.30786514152116E-43  -1.98450161460868E-05   1.68057982652014E-15   1.35000000000000E+00   1.35000000000000E+00
      0.00000000000000E+00   0.00000000000000E+00   0.00000000000000E+00   0.00000000000000E+00   0.00000000000000E+00
      8.30197298200127E-15  -1.80000000000000E+00  -1.80000000000000E+00   0.00000000000000E+00   0.00000000000000E+00
     -1.18072955961309E-17   3.30786514154963E-43  -1.18072955961309E-17  -1.24884569362043E-14   9.90000000000000E-01
      9.90000000000000E-01   0.00000000000000E+00   0.00000000000000E+00   1.98450161460986E-05  -2.84648678978772E-54
      1.98450161460986E-05   2.50590412768295E-15
      6.00000000000000E-01
      0.00000000000000E+00   0.00000000000000E+00   0.00000000000000E+00   0.00000000000000E+00  -1.98711951915036E-05
     -4.45554554008972E-43  -1.98711951915036E-05   1.68057990020398E-15   1.35000000000000E+00   1.35000000000000E+00
      0.00000000000000E+00   0.00000000000000E+00   0.00000000000000E+00   0.00000000000000E+00   0.00000000000000E+00
      8.23508199662056E-15  -1.80000000000000E+00  -1.80000000000000E+00   0.00000000000000E+00   0.00000000000000E+00
      1.03533008970597E-17   4.45554554014464E-43   1.03533008970597E-17  -1.25165689340156E-14   1.08000000000000E+00
      1.08000000000000E+00   0.00000000000000E+00   0.00000000000000E+00   1.98711951914933E-05  -5.49284921006238E-54
      1.98711951914933E-05   2.60090703719111E-15
      6.50000000000000E-01
      0.00000000000000E+00   0.00000000000000E+00   0.00000000000000E+00   0.00000000000000E+00  -1.98965665757378E-05
     -6.98011313415340E-43  -1.98965665757378E-05   1.68057997154323E-15   1.35000000000000E+00   1.35000000000000E+00
      0.00000000000000E+00   0.00000000000000E+00   0.00000000000000E+00   0.00000000000000E+00   0.00000000000000E+00
      8.17078027940694E-15  -1.80000000000000E+00  -1.80000000000000E+00   0.00000000000000E+00   0.00000000000000E+00
      3.15360315863840E-16   6.98011313417021E-43   3.15360315863840E-16  -1.25476082481811E-14   1.17000000000000E+00
      1.17000000000000E+00   0.00000000000000E+00   0.00000000000000E+00   1.98965665754224E-05  -1.68173150992640E-54
      1.98965665754224E-05   2.69624799723092E-15
      7.00000000000000E-01
      0.00000000000000E+00   0.00000000000000E+00   0.00000000000000E+00   0.00000000000000E+00  -1.99210871385401E-05
     -6.80405740821732E-43  -1.99210871385401E-05   1.68058004042340E-15   1.35000000000000E+00   1.35000000000000E+00
      0.00000000000000E+00   0.00000000000000E+00   0.00000000000000E+00   0.00000000000000E+00   0.00000000000000E+00
      8.10851230602262E-15  -1.80000000000000E+00  -1.80000000000000E+00   0.00000000000000E+00   0.00000000000000E+00
      6.21239964701021E-15   6.80405740821958E-43   6.21239964701021E-15  -1.25792475902063E-14   1.26000000000000E+00
      1.26000000000000E+00   0.00000000000000E+00   0.00000000000000E+00   1.99210871323277E-05  -2.26874181532894E-55
      1.99210871323277E-05   2.79015524376033E-15
      7.50000000000000E-01
      0.00000000000000E+00   0.00000000000000E+00   0.00000000000000E+00   0.00000000000000E+00  -1.99446677096292E-05
     -4.40729760829287E-43  -1.99446677096292E-05   1.68058010660115E-15   1.35000000000000E+00   1.35000000000000E+00
      0.00000000000000E+00   0.00000000000000E+00   0.00000000000000E+00   0.00000000000000E+00   0.00000000000000E+00
      8.04845123439090E-15  -1.80000000000000E+00  -1.80000000000000E+00   0.00000000000000E+00   0.00000000000000E+00
      4.47916150275648E-14   4.40729760829275E-43   4.47916150275648E-14  -1.26108326922662E-14   1.35000000000000E+00
      1.35000000000000E+00   0.00000000000000E+00   0.00000000000000E+00   1.99446676648376E-05   1.20245031860627E-56
      1.99446676648376E-05   2.88180135127419E-15
      8.00000000000000E-01
      0.00000000000000E+00   0.00000000000000E+00   0.00000000000000E+00   0.00000000000000E+00  -1.99672272141221E-05
     -5.16239357770753E-43  -1.99672272141221E-05   1.68058016985649E-15   1.35000000000000E+00   1.35000000000000E+00
      0.00000000000000E+00   0.00000000000000E+00   0.00000000000000E+00   0.00000000000000E+00   0.00000000000000E+00
      7.99070782662261E-15  -1.80000000000000E+00  -1.80000000000000E+00   0.00000000000000E+00   0.00000000000000E+00
      1.87390425182185E-14   5.16239357770752E-43   1.87390425182185E-14  -1.26422163223706E-14   1.44000000000000E+00
      1.44000000000000E+00   0.00000000000000E+00   0.00000000000000E+00   1.99672271953831E-05   7.48666422939702E-59
      1.99672271953831E-05   2.97092832589152E-15
      8.50000000000000E-01
      0.00000000000000E+00   0.00000000000000E+00   0.00000000000000E+00   0.00000000000000E+00  -1.99887628165598E-05
     -2.83869105829716E-44  -1.99887628165598E-05   1.68058023018901E-15   1.35000000000000E+00   1.35000000000000E+00
      0.00000000000000E+00   0.00000000000000E+00   0.00000000000000E+00   0.00000000000000E+00   0.00000000000000E+00
      7.93502290023427E-15  -1.80000000000000E+00  -1.80000000000000E+00   0.00000000000000E+00   0.00000000000000E+00
      9.07796404166172E-17   2.83869105829719E-44   9.07796404166172E-17  -1.26733732941452E-14   1.53000000000000E+00
      1.53000000000000E+00   0.00000000000000E+00   0.00000000000000E+00   1.99887628164690E-05  -2.45583831077015E-58
      1.99887628164690E-05   3.05777016372195E-15
      9.00000000000000E-01
      0.00000000000000E+00   0.00000000000000E+00   0.00000000000000E+00   0.00000000000000E+00  -2.00094777693960E-05
     -2.54812770328570E-43  -2.00094777693960E-05   1.68058028817465E-15   1.35000000000000E+00   1.35000000000000E+00
      0.00000000000000E+00   0.00000000000000E+00   0.00000000000000E+00   0.00000000000000E+00   0.00000000000000E+00
      7.88090804800699E-15  -1.80000000000000E+00  -1.80000000000000E+00   0.00000000000000E+00   0.00000000000000E+00
      1.30441040574618E-17   2.54812770328571E-43   1.30441040574618E-17  -1.27043027949003E-14   1.62000000000000E+00
      1.62000000000000E+00   0.00000000000000E+00   0.00000000000000E+00   2.00094777693829E-05  -6.20743284881389E-59
      2.00094777693829E-05   3.14281445871864E-15
      9.50000000000000E-01
      0.00000000000000E+00   0.00000000000000E+00   0.00000000000000E+00   0.00000000000000E+00  -2.00296541792098E-05
     -2.26598593830497E-43  -2.00296541792098E-05   1.68058034460768E-15   1.35000000000000E+00   1.35000000000000E+00
      0.00000000000000E+00   0.00000000000000E+00   0.00000000000000E+00   0.00000000000000E+00   0.00000000000000E+00
      7.82791257167292E-15  -1.80000000000000E+00  -1.80000000000000E+00   0.00000000000000E+00   0.00000000000000E+00
      2.10568853536885E-17   2.26598593830497E-43   2.10568853536885E-17  -1.27350240659557E-14   1.71000000000000E+00
      1.71000000000000E+00   0.00000000000000E+00   0.00000000000000E+00   2.00296541791887E-05  -4.50518422994117E-60
      2.00296541791887E-05   3.22653114967507E-15
      1.00000000000000E+00
      0.00000000000000E+00   0.00000000000000E+00   0.00000000000000E+00   0.00000000000000E+00  -2.00494599303529E-05
     -4.04905432916798E-43  -2.00494599303529E-05   1.68058039996070E-15   1.35000000000000E+00   1.35000000000000E+00
      0.00000000000000E+00   0.00000000000000E+00   0.00000000000000E+00   0.00000000000000E+00   0.00000000000000E+00
      7.77572435303162E-15  -1.80000000000000E+00  -1.80000000000000E+00   0.00000000000000E+00   0.00000000000000E+00
     -1.42434362637079E-18   4.04905432916798E-43  -1.42434362637079E-18  -1.27655548632420E-14   1.80000000000000E+00
      1.80000000000000E+00   0.00000000000000E+00   0.00000000000000E+00   2.00494599303544E-05   1.19905105242998E-61
      2.00494599303544E-05   3.30925011024972E-15
}
