DF-ISE text

Info {
  version   = 1.0
  type      = xyplot
  datasets  = [
    "time"
    "source OuterVoltage" "source InnerVoltage" "source QuasiFermiPotential" "source DisplacementCurrent" "source eCurrent"
    "source hCurrent" "source TotalCurrent" "source Charge" "gate OuterVoltage" "gate InnerVoltage"
    "gate QuasiFermiPotential" "gate DisplacementCurrent" "gate eCurrent" "gate hCurrent" "gate TotalCurrent"
    "gate Charge" "substrate OuterVoltage" "substrate InnerVoltage" "substrate QuasiFermiPotential" "substrate DisplacementCurrent"
    "substrate eCurrent" "substrate hCurrent" "substrate TotalCurrent" "substrate Charge" "drain OuterVoltage"
    "drain InnerVoltage" "drain QuasiFermiPotential" "drain DisplacementCurrent" "drain eCurrent" "drain hCurrent"
    "drain TotalCurrent" "drain Charge" ]
  functions = [
    Time
    OuterVoltage InnerVoltage QuasiFermiPotential DisplacementCurrent eCurrent
    hCurrent TotalCurrent Charge OuterVoltage InnerVoltage
    QuasiFermiPotential DisplacementCurrent eCurrent hCurrent TotalCurrent
    Charge OuterVoltage InnerVoltage QuasiFermiPotential DisplacementCurrent
    eCurrent hCurrent TotalCurrent Charge OuterVoltage
    InnerVoltage QuasiFermiPotential DisplacementCurrent eCurrent hCurrent
    TotalCurrent Charge ]
}

Data {
      5.00000000000000E-02
      0.00000000000000E+00   0.00000000000000E+00   0.00000000000000E+00   0.00000000000000E+00  -2.19307470237269E-08
     -1.97993241799620E-43  -2.19307470237269E-08   1.81837793662411E-15   9.00000000000000E-01   9.00000000000000E-01
      0.00000000000000E+00   0.00000000000000E+00   0.00000000000000E+00   0.00000000000000E+00   0.00000000000000E+00
      6.13831072157752E-15  -1.80000000000000E+00  -1.80000000000000E+00   0.00000000000000E+00   0.00000000000000E+00
      5.75866693317964E-18   2.29889098326744E-43   5.75866693317964E-18  -9.85037169306000E-15   9.00000000000000E-02
      9.00000000000000E-02   0.00000000000000E+00   0.00000000000000E+00   2.19307470179683E-08  -3.18958565271240E-44
      2.19307470179683E-08   1.89368303485838E-15
      1.00000000000000E-01
      0.00000000000000E+00   0.00000000000000E+00   0.00000000000000E+00   0.00000000000000E+00  -2.25102962795533E-08
     -4.03050288968206E-43  -2.25102962795533E-08   1.81837791882623E-15   9.00000000000000E-01   9.00000000000000E-01
      0.00000000000000E+00   0.00000000000000E+00   0.00000000000000E+00   0.00000000000000E+00   0.00000000000000E+00
      6.02660930988359E-15  -1.80000000000000E+00  -1.80000000000000E+00   0.00000000000000E+00   0.00000000000000E+00
      7.88840220965912E-20   4.25655681448813E-43   7.88840220965912E-20  -9.81653768468709E-15   1.80000000000000E-01
      1.80000000000000E-01   0.00000000000000E+00   0.00000000000000E+00   2.25102962794744E-08  -2.26053924806069E-44
      2.25102962794744E-08   1.97155045597726E-15
      1.50000000000000E-01
      0.00000000000000E+00   0.00000000000000E+00   0.00000000000000E+00   0.00000000000000E+00  -2.25648252805858E-08
     -2.57788391487455E-43  -2.25648252805858E-08   1.81837791715120E-15   9.00000000000000E-01   9.00000000000000E-01
      0.00000000000000E+00   0.00000000000000E+00   0.00000000000000E+00   0.00000000000000E+00   0.00000000000000E+00
      5.92780432502375E-15  -1.80000000000000E+00  -1.80000000000000E+00   0.00000000000000E+00   0.00000000000000E+00
     -1.34019433388774E-19   2.58685218277495E-43  -1.34019433388774E-19  -9.79890601722670E-15   2.70000000000000E-01
      2.70000000000000E-01   0.00000000000000E+00   0.00000000000000E+00   2.25648252807198E-08  -8.96826790039818E-46
      2.25648252807198E-08   2.05272377505176E-15
      2.00000000000000E-01
      0.00000000000000E+00   0.00000000000000E+00   0.00000000000000E+00   0.00000000000000E+00  -2.26121202713077E-08
     -6.27744861697969E-43  -2.26121202713077E-08   1.81837791569834E-15   9.00000000000000E-01   9.00000000000000E-01
      0.00000000000000E+00   0.00000000000000E+00   0.00000000000000E+00   0.00000000000000E+00   0.00000000000000E+00
      5.83923807048238E-15  -1.80000000000000E+00  -1.80000000000000E+00   0.00000000000000E+00   0.00000000000000E+00
     -5.81510114623866E-18   6.27928817842394E-43  -5.81510114623866E-18  -9.79573675047258E-15   3.60000000000000E-01
      3.60000000000000E-01   0.00000000000000E+00   0.00000000000000E+00   2.26121202771229E-08  -1.83956144424446E-46
      2.26121202771229E-08   2.13812076429187E-15
      2.50000000000000E-01
      0.00000000000000E+00   0.00000000000000E+00   0.00000000000000E+00   0.00000000000000E+00  -2.26542930116975E-08
     -2.62911908106536E-43  -2.26542930116975E-08   1.81837791440278E-15   9.00000000000000E-01   9.00000000000000E-01
      0.00000000000000E+00   0.00000000000000E+00   0.00000000000000E+00   0.00000000000000E+00   0.00000000000000E+00
      5.76073704222094E-15  -1.80000000000000E+00  -1.80000000000000E+00   0.00000000000000E+00   0.00000000000000E+00
      2.69280306997658E-18   2.62959066504954E-43   2.69280306997658E-18  -9.80780743515045E-15   4.50000000000000E-01
      4.50000000000000E-01   0.00000000000000E+00   0.00000000000000E+00   2.26542930090047E-08  -4.71583984180784E-47
      2.26542930090047E-08   2.22869247852673E-15
      3.00000000000000E-01
      0.00000000000000E+00   0.00000000000000E+00   0.00000000000000E+00   0.00000000000000E+00  -2.26933669981299E-08
     -2.08405237796790E-43  -2.26933669981299E-08   1.81837791320241E-15   9.00000000000000E-01   9.00000000000000E-01
      0.00000000000000E+00   0.00000000000000E+00   0.00000000000000E+00   0.00000000000000E+00   0.00000000000000E+00
      5.69083686265620E-15  -1.80000000000000E+00  -1.80000000000000E+00   0.00000000000000E+00   0.00000000000000E+00
      6.31574434276546E-19   2.08406909615462E-43   6.31574434276546E-19  -9.83347086498148E-15   5.40000000000000E-01
      5.40000000000000E-01   0.00000000000000E+00   0.00000000000000E+00   2.26933669974983E-08  -1.67181867184448E-48
      2.26933669974983E-08   2.32425608912290E-15
      3.50000000000000E-01
      0.00000000000000E+00   0.00000000000000E+00   0.00000000000000E+00   0.00000000000000E+00  -2.27307484504647E-08
     -4.99460941259003E-43  -2.27307484504647E-08   1.81837791205400E-15   9.00000000000000E-01   9.00000000000000E-01
      0.00000000000000E+00   0.00000000000000E+00   0.00000000000000E+00   0.00000000000000E+00   0.00000000000000E+00
      5.62591549081900E-15  -1.80000000000000E+00  -1.80000000000000E+00   0.00000000000000E+00   0.00000000000000E+00
     -2.46431375197663E-19   4.99460796230046E-43  -2.46431375197663E-19  -9.86683159354641E-15   6.30000000000000E-01
      6.30000000000000E-01   0.00000000000000E+00   0.00000000000000E+00   2.27307484507111E-08   1.45028956207330E-49
      2.27307484507111E-08   2.42253819067342E-15
      4.00000000000000E-01
      0.00000000000000E+00   0.00000000000000E+00   0.00000000000000E+00   0.00000000000000E+00  -2.27669258034031E-08
     -6.22166419804837E-43  -2.27669258034031E-08   1.81837791094257E-15   9.00000000000000E-01   9.00000000000000E-01
      0.00000000000000E+00   0.00000000000000E+00   0.00000000000000E+00   0.00000000000000E+00   0.00000000000000E+00
      5.56348597443371E-15  -1.80000000000000E+00  -1.80000000000000E+00   0.00000000000000E+00   0.00000000000000E+00
     -6.12473993067641E-18   6.22166465275869E-43  -6.12473993067641E-18  -9.90259643859806E-15   7.20000000000000E-01
      7.20000000000000E-01   0.00000000000000E+00   0.00000000000000E+00   2.27669258095278E-08  -4.54710309862954E-50
      2.27669258095278E-08   2.52073255322178E-15
      4.50000000000000E-01
      0.00000000000000E+00   0.00000000000000E+00   0.00000000000000E+00   0.00000000000000E+00  -2.28019304440420E-08
     -4.45331468587156E-43  -2.28019304440420E-08   1.81837790986714E-15   9.00000000000000E-01   9.00000000000000E-01
      0.00000000000000E+00   0.00000000000000E+00   0.00000000000000E+00   0.00000000000000E+00   0.00000000000000E+00
      5.50294064444002E-15  -1.80000000000000E+00  -1.80000000000000E+00   0.00000000000000E+00   0.00000000000000E+00
     -1.01169254872026E-17   4.45331467119177E-43  -1.01169254872026E-17  -9.93859360751849E-15   8.10000000000000E-01
      8.10000000000000E-01   0.00000000000000E+00   0.00000000000000E+00   2.28019304541590E-08   1.46797942241956E-51
      2.28019304541590E-08   2.61727505321133E-15
      5.00000000000000E-01
      0.00000000000000E+00   0.00000000000000E+00   0.00000000000000E+00   0.00000000000000E+00  -2.28356860000760E-08
     -4.55928578783845E-43  -2.28356860000760E-08   1.81837790883007E-15   9.00000000000000E-01   9.00000000000000E-01
      0.00000000000000E+00   0.00000000000000E+00   0.00000000000000E+00   0.00000000000000E+00   0.00000000000000E+00
      5.44442484197131E-15  -1.80000000000000E+00  -1.80000000000000E+00   0.00000000000000E+00   0.00000000000000E+00
     -6.73242408786145E-19   4.55928579399858E-43  -6.73242408786145E-19  -9.97426125901668E-15   9.00000000000000E-01
      9.00000000000000E-01   0.00000000000000E+00   0.00000000000000E+00   2.28356860007493E-08  -6.16013981376365E-52
      2.28356860007493E-08   2.71145850821531E-15
      5.50000000000000E-01
      0.00000000000000E+00   0.00000000000000E+00   0.00000000000000E+00   0.00000000000000E+00  -2.28680948630727E-08
     -5.72011494692082E-43  -2.28680948630727E-08   1.81837790783436E-15   9.00000000000000E-01   9.00000000000000E-01
      0.00000000000000E+00   0.00000000000000E+00   0.00000000000000E+00   0.00000000000000E+00   0.00000000000000E+00
      5.38799187755177E-15  -1.80000000000000E+00  -1.80000000000000E+00   0.00000000000000E+00   0.00000000000000E+00
     -4.37680233943639E-18   5.72011494965779E-43  -4.37680233943639E-18  -1.00094875905471E-14   9.90000000000000E-01
      9.90000000000000E-01   0.00000000000000E+00   0.00000000000000E+00   2.28680948674496E-08  -2.73696676353627E-52
      2.28680948674496E-08   2.80311780516097E-15
      6.00000000000000E-01
      0.00000000000000E+00   0.00000000000000E+00   0.00000000000000E+00   0.00000000000000E+00  -2.28990250808181E-08
     -5.73451554719518E-43  -2.28990250808181E-08   1.81837790688405E-15   9.00000000000000E-01   9.00000000000000E-01
      0.00000000000000E+00   0.00000000000000E+00   0.00000000000000E+00   0.00000000000000E+00   0.00000000000000E+00
      5.33346658401985E-15  -1.80000000000000E+00  -1.80000000000000E+00   0.00000000000000E+00   0.00000000000000E+00
      3.72537816535016E-19   5.73451554712751E-43   3.72537816535016E-19  -1.00442533180364E-14   1.08000000000000E+00
      1.08000000000000E+00   0.00000000000000E+00   0.00000000000000E+00   2.28990250804456E-08   6.76662084275118E-54
      2.28990250804456E-08   2.89240882713254E-15
      6.50000000000000E-01
      0.00000000000000E+00   0.00000000000000E+00   0.00000000000000E+00   0.00000000000000E+00  -2.29284929803640E-08
     -6.71838090150541E-43  -2.29284929803640E-08   1.81837790597866E-15   9.00000000000000E-01   9.00000000000000E-01
      0.00000000000000E+00   0.00000000000000E+00   0.00000000000000E+00   0.00000000000000E+00   0.00000000000000E+00
      5.28065069982857E-15  -1.80000000000000E+00  -1.80000000000000E+00   0.00000000000000E+00   0.00000000000000E+00
     -1.49285238957526E-18   6.71838090150141E-43  -1.49285238957526E-18  -1.00785734901836E-14   1.17000000000000E+00
      1.17000000000000E+00   0.00000000000000E+00   0.00000000000000E+00   2.29284929818568E-08   3.99776828528958E-55
      2.29284929818568E-08   2.97954488437633E-15
      7.00000000000000E-01
      0.00000000000000E+00   0.00000000000000E+00   0.00000000000000E+00   0.00000000000000E+00  -2.29568741273584E-08
     -4.86726272512201E-43  -2.29568741273584E-08   1.81837790510665E-15   9.00000000000000E-01   9.00000000000000E-01
      0.00000000000000E+00   0.00000000000000E+00   0.00000000000000E+00   0.00000000000000E+00   0.00000000000000E+00
      5.22918037942434E-15  -1.80000000000000E+00  -1.80000000000000E+00   0.00000000000000E+00   0.00000000000000E+00
     -2.72391257553690E-18   4.86726272512480E-43  -2.72391257553690E-18  -1.01125059275172E-14   1.26000000000000E+00
      1.26000000000000E+00   0.00000000000000E+00   0.00000000000000E+00   2.29568741300823E-08  -2.79184401997525E-55
      2.29568741300823E-08   3.06494764298619E-15
      7.50000000000000E-01
      0.00000000000000E+00   0.00000000000000E+00   0.00000000000000E+00   0.00000000000000E+00  -2.29845762626684E-08
     -4.61782240121432E-43  -2.29845762626684E-08   1.81837790425548E-15   9.00000000000000E-01   9.00000000000000E-01
      0.00000000000000E+00   0.00000000000000E+00   0.00000000000000E+00   0.00000000000000E+00   0.00000000000000E+00
      5.17862351799941E-15  -1.80000000000000E+00  -1.80000000000000E+00   0.00000000000000E+00   0.00000000000000E+00
      2.87991362405765E-18   4.61782240121432E-43   2.87991362405765E-18  -1.01461124307255E-14   1.35000000000000E+00
      1.35000000000000E+00   0.00000000000000E+00   0.00000000000000E+00   2.29845762597885E-08   1.23584614047190E-58
      2.29845762597885E-08   3.14911100847061E-15
      8.00000000000000E-01
      0.00000000000000E+00   0.00000000000000E+00   0.00000000000000E+00   0.00000000000000E+00  -2.30118013891277E-08
     -3.52956600038894E-43  -2.30118013891277E-08   1.81837790341896E-15   9.00000000000000E-01   9.00000000000000E-01
      0.00000000000000E+00   0.00000000000000E+00   0.00000000000000E+00   0.00000000000000E+00   0.00000000000000E+00
      5.12871717085920E-15  -1.80000000000000E+00  -1.80000000000000E+00   0.00000000000000E+00   0.00000000000000E+00
      7.93940063429100E-18   3.52956600038894E-43   7.93940063429100E-18  -1.01794301417277E-14   1.44000000000000E+00
      1.44000000000000E+00   0.00000000000000E+00   0.00000000000000E+00   2.30118013811883E-08  -1.51838451202226E-58
      2.30118013811883E-08   3.23233506744954E-15
      8.50000000000000E-01
      0.00000000000000E+00   0.00000000000000E+00   0.00000000000000E+00   0.00000000000000E+00  -2.30386202525028E-08
     -3.61750996918357E-43  -2.30386202525028E-08   1.81837790259491E-15   9.00000000000000E-01   9.00000000000000E-01
      0.00000000000000E+00   0.00000000000000E+00   0.00000000000000E+00   0.00000000000000E+00   0.00000000000000E+00
      5.07940018879146E-15  -1.80000000000000E+00  -1.80000000000000E+00   0.00000000000000E+00   0.00000000000000E+00
     -5.57039692861251E-18   3.61750996918358E-43  -5.57039692861251E-18  -1.02124799030901E-14   1.53000000000000E+00
      1.53000000000000E+00   0.00000000000000E+00   0.00000000000000E+00   2.30386202580732E-08  -4.83778812100771E-58
      2.30386202580732E-08   3.31470181170371E-15
      9.00000000000000E-01
      0.00000000000000E+00   0.00000000000000E+00   0.00000000000000E+00   0.00000000000000E+00  -2.30650512959826E-08
     -2.16026190276252E-43  -2.30650512959826E-08   1.81837790178276E-15   9.00000000000000E-01   9.00000000000000E-01
      0.00000000000000E+00   0.00000000000000E+00   0.00000000000000E+00   0.00000000000000E+00   0.00000000000000E+00
      5.03071893266568E-15  -1.80000000000000E+00  -1.80000000000000E+00   0.00000000000000E+00   0.00000000000000E+00
      3.21663612259455E-18   2.16026190276252E-43   3.21663612259455E-18  -1.02452772674677E-14   1.62000000000000E+00
      1.62000000000000E+00   0.00000000000000E+00   0.00000000000000E+00   2.30650512927660E-08  -6.65728544680426E-59
      2.30650512927660E-08   3.39618043301931E-15
      9.50000000000000E-01
      0.00000000000000E+00   0.00000000000000E+00   0.00000000000000E+00   0.00000000000000E+00  -2.30910932313404E-08
     -4.86325858915219E-43  -2.30910932313404E-08   1.81837790098256E-15   9.00000000000000E-01   9.00000000000000E-01
      0.00000000000000E+00   0.00000000000000E+00   0.00000000000000E+00   0.00000000000000E+00   0.00000000000000E+00
      4.98271335488442E-15  -1.80000000000000E+00  -1.80000000000000E+00   0.00000000000000E+00   0.00000000000000E+00
     -2.24609921192490E-18   4.86325858915219E-43  -2.24609921192490E-18  -1.02778366668273E-14   1.71000000000000E+00
      1.71000000000000E+00   0.00000000000000E+00   0.00000000000000E+00   2.30910932335865E-08  -8.04303013243999E-60
      2.30910932335865E-08   3.47674541096030E-15
      1.00000000000000E+00
      0.00000000000000E+00   0.00000000000000E+00   0.00000000000000E+00   0.00000000000000E+00  -2.31167335336647E-08
     -5.74281201815688E-43  -2.31167335336647E-08   1.81837790019468E-15   9.00000000000000E-01   9.00000000000000E-01
      0.00000000000000E+00   0.00000000000000E+00   0.00000000000000E+00   0.00000000000000E+00   0.00000000000000E+00
      4.93539179182259E-15  -1.80000000000000E+00  -1.80000000000000E+00   0.00000000000000E+00   0.00000000000000E+00
     -6.92175415130628E-19   5.74281201815688E-43  -6.92175415130628E-19  -1.03101704602972E-14   1.80000000000000E+00
      1.80000000000000E+00   0.00000000000000E+00   0.00000000000000E+00   2.31167335343569E-08  -1.69971904397839E-61
      2.31167335343569E-08   3.55640076827992E-15
}
