DF-ISE text

Info {
  version   = 1.0
  type      = xyplot
  datasets  = [
    "time"
    "source OuterVoltage" "source InnerVoltage" "source QuasiFermiPotential" "source DisplacementCurrent" "source eCurrent"
    "source hCurrent" "source TotalCurrent" "source Charge" "gate OuterVoltage" "gate InnerVoltage"
    "gate QuasiFermiPotential" "gate DisplacementCurrent" "gate eCurrent" "gate hCurrent" "gate TotalCurrent"
    "gate Charge" "substrate OuterVoltage" "substrate InnerVoltage" "substrate QuasiFermiPotential" "substrate DisplacementCurrent"
    "substrate eCurrent" "substrate hCurrent" "substrate TotalCurrent" "substrate Charge" "drain OuterVoltage"
    "drain InnerVoltage" "drain QuasiFermiPotential" "drain DisplacementCurrent" "drain eCurrent" "drain hCurrent"
    "drain TotalCurrent" "drain Charge" ]
  functions = [
    Time
    OuterVoltage InnerVoltage QuasiFermiPotential DisplacementCurrent eCurrent
    hCurrent TotalCurrent Charge OuterVoltage InnerVoltage
    QuasiFermiPotential DisplacementCurrent eCurrent hCurrent TotalCurrent
    Charge OuterVoltage InnerVoltage QuasiFermiPotential DisplacementCurrent
    eCurrent hCurrent TotalCurrent Charge OuterVoltage
    InnerVoltage QuasiFermiPotential DisplacementCurrent eCurrent hCurrent
    TotalCurrent Charge ]
}

Data {
      5.00000000000000E-02
      0.00000000000000E+00   0.00000000000000E+00   0.00000000000000E+00   0.00000000000000E+00  -9.44881916301548E-08
      1.97774111556352E-42  -9.44881916301548E-08   1.85673839477021E-15   9.00000000000000E-01   9.00000000000000E-01
      0.00000000000000E+00   0.00000000000000E+00   0.00000000000000E+00   0.00000000000000E+00   0.00000000000000E+00
      2.86233872375782E-15  -1.80000000000000E+00  -1.80000000000000E+00   0.00000000000000E+00   0.00000000000000E+00
      3.70929761575126E-18  -2.35866099176089E-42   3.70929761575126E-18  -6.64396163666587E-15   9.00000000000000E-02
      9.00000000000000E-02   0.00000000000000E+00   0.00000000000000E+00   9.44881916264455E-08   3.80919876197371E-43
      9.44881916264455E-08   1.92488451813784E-15
      1.00000000000000E-01
      0.00000000000000E+00   0.00000000000000E+00   0.00000000000000E+00   0.00000000000000E+00  -9.72661462275190E-08
      2.86787454492970E-42  -9.72661462275190E-08   1.85673783616358E-15   9.00000000000000E-01   9.00000000000000E-01
      0.00000000000000E+00   0.00000000000000E+00   0.00000000000000E+00   0.00000000000000E+00   0.00000000000000E+00
      2.75246012995014E-15  -1.80000000000000E+00  -1.80000000000000E+00   0.00000000000000E+00   0.00000000000000E+00
     -3.43014082272421E-18  -2.93017805390761E-42  -3.43014082272421E-18  -6.60499804223916E-15   1.80000000000000E-01
      1.80000000000000E-01   0.00000000000000E+00   0.00000000000000E+00   9.72661462309492E-08   6.23035089779146E-44
      9.72661462309492E-08   1.99580007612544E-15
      1.50000000000000E-01
      0.00000000000000E+00   0.00000000000000E+00   0.00000000000000E+00   0.00000000000000E+00  -9.82612671604984E-08
      2.62299591096387E-42  -9.82612671604984E-08   1.85673742255471E-15   9.00000000000000E-01   9.00000000000000E-01
      0.00000000000000E+00   0.00000000000000E+00   0.00000000000000E+00   0.00000000000000E+00   0.00000000000000E+00
      2.65556806095532E-15  -1.80000000000000E+00  -1.80000000000000E+00   0.00000000000000E+00   0.00000000000000E+00
     -1.21148656039064E-17  -2.63105112491716E-42  -1.21148656039064E-17  -6.58270857222014E-15   2.70000000000000E-01
      2.70000000000000E-01   0.00000000000000E+00   0.00000000000000E+00   9.82612671726132E-08   8.05521395329116E-45
      9.82612671726132E-08   2.07040308871012E-15
      2.00000000000000E-01
      0.00000000000000E+00   0.00000000000000E+00   0.00000000000000E+00   0.00000000000000E+00  -9.91742654545398E-08
      1.61525704853828E-42  -9.91742654545398E-08   1.85673704294941E-15   9.00000000000000E-01   9.00000000000000E-01
      0.00000000000000E+00   0.00000000000000E+00   0.00000000000000E+00   0.00000000000000E+00   0.00000000000000E+00
      2.56898977503383E-15  -1.80000000000000E+00  -1.80000000000000E+00   0.00000000000000E+00   0.00000000000000E+00
      4.47393486720883E-15  -1.61629650417404E-42   4.47393486720883E-15  -6.57568689068110E-15   3.60000000000000E-01
      3.60000000000000E-01   0.00000000000000E+00   0.00000000000000E+00   9.91742609806049E-08   1.03945563576634E-45
      9.91742609806049E-08   2.14996007269788E-15
      2.50000000000000E-01
      0.00000000000000E+00   0.00000000000000E+00   0.00000000000000E+00   0.00000000000000E+00  -1.00018059518330E-07
      2.00736673942433E-42  -1.00018059518330E-07   1.85673668191492E-15   9.00000000000000E-01   9.00000000000000E-01
      0.00000000000000E+00   0.00000000000000E+00   0.00000000000000E+00   0.00000000000000E+00   0.00000000000000E+00
      2.49229722777125E-15  -1.80000000000000E+00  -1.80000000000000E+00   0.00000000000000E+00   0.00000000000000E+00
      5.31033633941971E-18  -2.00753254464786E-42   5.31033633941971E-18  -6.58498132496690E-15   4.50000000000000E-01
      4.50000000000000E-01   0.00000000000000E+00   0.00000000000000E+00   1.00018059513020E-07   1.65805223528814E-46
      1.00018059513020E-07   2.23594741528073E-15
      3.00000000000000E-01
      0.00000000000000E+00   0.00000000000000E+00   0.00000000000000E+00   0.00000000000000E+00  -1.00817232019451E-07
      2.85675041028608E-42  -1.00817232019451E-07   1.85673633210421E-15   9.00000000000000E-01   9.00000000000000E-01
      0.00000000000000E+00   0.00000000000000E+00   0.00000000000000E+00   0.00000000000000E+00   0.00000000000000E+00
      2.42449083871799E-15  -1.80000000000000E+00  -1.80000000000000E+00   0.00000000000000E+00   0.00000000000000E+00
     -2.12441128768595E-18  -2.85677191933895E-42  -2.12441128768595E-18  -6.60945192595129E-15   5.40000000000000E-01
      5.40000000000000E-01   0.00000000000000E+00   0.00000000000000E+00   1.00817232021576E-07   2.15090528711397E-47
      1.00817232021576E-07   2.32822475512909E-15
      3.50000000000000E-01
      0.00000000000000E+00   0.00000000000000E+00   0.00000000000000E+00   0.00000000000000E+00  -1.01588439988773E-07
      1.42595241104135E-42  -1.01588439988773E-07   1.85673598808899E-15   9.00000000000000E-01   9.00000000000000E-01
      0.00000000000000E+00   0.00000000000000E+00   0.00000000000000E+00   0.00000000000000E+00   0.00000000000000E+00
      2.36227260300283E-15  -1.80000000000000E+00  -1.80000000000000E+00   0.00000000000000E+00   0.00000000000000E+00
      4.81346799555965E-18  -1.42595468808477E-42   4.81346799555965E-18  -6.64279614663081E-15   6.30000000000000E-01
      6.30000000000000E-01   0.00000000000000E+00   0.00000000000000E+00   1.01588439983960E-07   2.27704342092031E-48
      1.01588439983960E-07   2.42378755553900E-15
      4.00000000000000E-01
      0.00000000000000E+00   0.00000000000000E+00   0.00000000000000E+00   0.00000000000000E+00  -1.02338597827795E-07
      2.11966677053186E-42  -1.02338597827795E-07   1.85673564763848E-15   9.00000000000000E-01   9.00000000000000E-01
      0.00000000000000E+00   0.00000000000000E+00   0.00000000000000E+00   0.00000000000000E+00   0.00000000000000E+00
      2.30276252327664E-15  -1.80000000000000E+00  -1.80000000000000E+00   0.00000000000000E+00   0.00000000000000E+00
      2.66698784254126E-18  -2.11966710190488E-42   2.66698784254126E-18  -6.67887163723852E-15   7.20000000000000E-01
      7.20000000000000E-01   0.00000000000000E+00   0.00000000000000E+00   1.02338597825128E-07   3.31373023512881E-49
      1.02338597825128E-07   2.51937346632340E-15
      4.50000000000000E-01
      0.00000000000000E+00   0.00000000000000E+00   0.00000000000000E+00   0.00000000000000E+00  -1.03068030416321E-07
      2.49708724960298E-42  -1.03068030416321E-07   1.85673531109956E-15   9.00000000000000E-01   9.00000000000000E-01
      0.00000000000000E+00   0.00000000000000E+00   0.00000000000000E+00   0.00000000000000E+00   0.00000000000000E+00
      2.24489519494954E-15  -1.80000000000000E+00  -1.80000000000000E+00   0.00000000000000E+00   0.00000000000000E+00
     -2.53414447556286E-18  -2.49708730414113E-42  -2.53414447556286E-18  -6.71516652414548E-15   8.10000000000000E-01
      8.10000000000000E-01   0.00000000000000E+00   0.00000000000000E+00   1.03068030418855E-07   5.45381491515324E-50
      1.03068030418855E-07   2.61353601809639E-15
      5.00000000000000E-01
      0.00000000000000E+00   0.00000000000000E+00   0.00000000000000E+00   0.00000000000000E+00  -1.03776574198911E-07
      2.42309788474089E-42  -1.03776574198911E-07   1.85673497900920E-15   9.00000000000000E-01   9.00000000000000E-01
      0.00000000000000E+00   0.00000000000000E+00   0.00000000000000E+00   0.00000000000000E+00   0.00000000000000E+00
      2.18840316086314E-15  -1.80000000000000E+00  -1.80000000000000E+00   0.00000000000000E+00   0.00000000000000E+00
     -7.96999334343299E-18  -2.42309789205106E-42  -7.96999334343299E-18  -6.75109155836325E-15   9.00000000000000E-01
      9.00000000000000E-01   0.00000000000000E+00   0.00000000000000E+00   1.03776574206881E-07   7.31017463675482E-51
      1.03776574206881E-07   2.70595341849092E-15
      5.50000000000000E-01
      0.00000000000000E+00   0.00000000000000E+00   0.00000000000000E+00   0.00000000000000E+00  -1.04466157418236E-07
      1.58925735906653E-42  -1.04466157418236E-07   1.85673465094939E-15   9.00000000000000E-01   9.00000000000000E-01
      0.00000000000000E+00   0.00000000000000E+00   0.00000000000000E+00   0.00000000000000E+00   0.00000000000000E+00
      2.13321432096222E-15  -1.80000000000000E+00  -1.80000000000000E+00   0.00000000000000E+00   0.00000000000000E+00
      1.29562699101367E-18  -1.58925735999345E-42   1.29562699101367E-18  -6.78657032518823E-15   9.90000000000000E-01
      9.90000000000000E-01   0.00000000000000E+00   0.00000000000000E+00   1.04466157416940E-07   9.26921319241805E-52
      1.04466157416940E-07   2.79662135327663E-15
      6.00000000000000E-01
      0.00000000000000E+00   0.00000000000000E+00   0.00000000000000E+00   0.00000000000000E+00  -1.05140783958289E-07
      1.41236823204800E-42  -1.05140783958289E-07   1.85673432549814E-15   9.00000000000000E-01   9.00000000000000E-01
      0.00000000000000E+00   0.00000000000000E+00   0.00000000000000E+00   0.00000000000000E+00   0.00000000000000E+00
      2.07920952711676E-15  -1.80000000000000E+00  -1.80000000000000E+00   0.00000000000000E+00   0.00000000000000E+00
      5.22331565261761E-17  -1.41236823224448E-42   5.22331565261761E-17  -6.82161371610737E-15   1.08000000000000E+00
      1.08000000000000E+00   0.00000000000000E+00   0.00000000000000E+00   1.05140783906056E-07   1.96480452074411E-52
      1.05140783906056E-07   2.88566986349247E-15
      6.50000000000000E-01
      0.00000000000000E+00   0.00000000000000E+00   0.00000000000000E+00   0.00000000000000E+00  -1.05804278312919E-07
      2.56759320139797E-42  -1.05804278312919E-07   1.85673400120329E-15   9.00000000000000E-01   9.00000000000000E-01
      0.00000000000000E+00   0.00000000000000E+00   0.00000000000000E+00   0.00000000000000E+00   0.00000000000000E+00
      2.02614645896756E-15  -1.80000000000000E+00  -1.80000000000000E+00   0.00000000000000E+00   0.00000000000000E+00
      1.03076244728270E-18  -2.56759320141705E-42   1.03076244728270E-18  -6.85623730916556E-15   1.17000000000000E+00
      1.17000000000000E+00   0.00000000000000E+00   0.00000000000000E+00   1.05804278311888E-07   1.90836414630290E-53
      1.05804278311888E-07   2.97335684899471E-15
      7.00000000000000E-01
      0.00000000000000E+00   0.00000000000000E+00   0.00000000000000E+00   0.00000000000000E+00  -1.06458824938790E-07
      1.56358965773977E-42  -1.06458824938790E-07   1.85673367726878E-15   9.00000000000000E-01   9.00000000000000E-01
      0.00000000000000E+00   0.00000000000000E+00   0.00000000000000E+00   0.00000000000000E+00   0.00000000000000E+00
      1.97382822219939E-15  -1.80000000000000E+00  -1.80000000000000E+00   0.00000000000000E+00   0.00000000000000E+00
     -2.59827073812531E-18  -1.56358965774196E-42  -2.59827073812531E-18  -6.89045883732116E-15   1.26000000000000E+00
      1.26000000000000E+00   0.00000000000000E+00   0.00000000000000E+00   1.06458824941388E-07   2.19024875427142E-54
      1.06458824941388E-07   3.05989693785300E-15
      7.50000000000000E-01
      0.00000000000000E+00   0.00000000000000E+00   0.00000000000000E+00   0.00000000000000E+00  -1.07105021740988E-07
      1.35176254446334E-42  -1.07105021740988E-07   1.85673335357795E-15   9.00000000000000E-01   9.00000000000000E-01
      0.00000000000000E+00   0.00000000000000E+00   0.00000000000000E+00   0.00000000000000E+00   0.00000000000000E+00
      1.92225900143482E-15  -1.80000000000000E+00  -1.80000000000000E+00   0.00000000000000E+00   0.00000000000000E+00
     -2.95844101525719E-18  -1.35176254446364E-42  -2.95844101525719E-18  -6.92430577588418E-15   1.35000000000000E+00
      1.35000000000000E+00   0.00000000000000E+00   0.00000000000000E+00   1.07105021743946E-07   3.00683374702426E-55
      1.07105021743946E-07   3.14531342087141E-15
      8.00000000000000E-01
      0.00000000000000E+00   0.00000000000000E+00   0.00000000000000E+00   0.00000000000000E+00  -1.07742342074460E-07
      2.06628588973566E-42  -1.07742342074460E-07   1.85673303052320E-15   9.00000000000000E-01   9.00000000000000E-01
      0.00000000000000E+00   0.00000000000000E+00   0.00000000000000E+00   0.00000000000000E+00   0.00000000000000E+00
      1.87163550376275E-15  -1.80000000000000E+00  -1.80000000000000E+00   0.00000000000000E+00   0.00000000000000E+00
     -1.82944630891503E-18  -2.06628588973571E-42  -1.82944630891503E-18  -6.95780935791776E-15   1.44000000000000E+00
      1.44000000000000E+00   0.00000000000000E+00   0.00000000000000E+00   1.07742342076289E-07   4.97160804518143E-56
      1.07742342076289E-07   3.22944082363181E-15
      8.50000000000000E-01
      0.00000000000000E+00   0.00000000000000E+00   0.00000000000000E+00   0.00000000000000E+00  -1.08369176750710E-07
      1.93148534948039E-42  -1.08369176750710E-07   1.85673270902542E-15   9.00000000000000E-01   9.00000000000000E-01
      0.00000000000000E+00   0.00000000000000E+00   0.00000000000000E+00   0.00000000000000E+00   0.00000000000000E+00
      1.82229134866282E-15  -1.80000000000000E+00  -1.80000000000000E+00   0.00000000000000E+00   0.00000000000000E+00
     -6.67474217357048E-18  -1.93148534948039E-42  -6.67474217357048E-18  -6.99099017205201E-15   1.53000000000000E+00
      1.53000000000000E+00   0.00000000000000E+00   0.00000000000000E+00   1.08369176757385E-07   4.03013365414149E-57
      1.08369176757385E-07   3.31196611436377E-15
      9.00000000000000E-01
      0.00000000000000E+00   0.00000000000000E+00   0.00000000000000E+00   0.00000000000000E+00  -1.08983158936575E-07
      3.16291523802469E-42  -1.08983158936575E-07   1.85673239041684E-15   9.00000000000000E-01   9.00000000000000E-01
      0.00000000000000E+00   0.00000000000000E+00   0.00000000000000E+00   0.00000000000000E+00   0.00000000000000E+00
      1.77454340721928E-15  -1.80000000000000E+00  -1.80000000000000E+00   0.00000000000000E+00   0.00000000000000E+00
     -3.90714120098404E-18  -3.16291523802469E-42  -3.90714120098404E-18  -7.02385254188613E-15   1.62000000000000E+00
      1.62000000000000E+00   0.00000000000000E+00   0.00000000000000E+00   1.08983158940482E-07   8.42695756505799E-58
      1.08983158940482E-07   3.39257674425001E-15
      9.50000000000000E-01
      0.00000000000000E+00   0.00000000000000E+00   0.00000000000000E+00   0.00000000000000E+00  -1.09583100935608E-07
      1.44065481926464E-42  -1.09583100935608E-07   1.85673207551399E-15   9.00000000000000E-01   9.00000000000000E-01
      0.00000000000000E+00   0.00000000000000E+00   0.00000000000000E+00   0.00000000000000E+00   0.00000000000000E+00
      1.72837299560285E-15  -1.80000000000000E+00  -1.80000000000000E+00   0.00000000000000E+00   0.00000000000000E+00
     -2.67659644735540E-18  -1.44065481926464E-42  -2.67659644735540E-18  -7.05639552550871E-15   1.71000000000000E+00
      1.71000000000000E+00   0.00000000000000E+00   0.00000000000000E+00   1.09583100938285E-07   8.18648128544806E-59
      1.09583100938285E-07   3.47129045439189E-15
      1.00000000000000E+00
      0.00000000000000E+00   0.00000000000000E+00   0.00000000000000E+00   0.00000000000000E+00  -1.10169254761627E-07
      2.64046568367640E-42  -1.10169254761627E-07   1.85673176445721E-15   9.00000000000000E-01   9.00000000000000E-01
      0.00000000000000E+00   0.00000000000000E+00   0.00000000000000E+00   0.00000000000000E+00   0.00000000000000E+00
      1.68343267127271E-15  -1.80000000000000E+00  -1.80000000000000E+00   0.00000000000000E+00   0.00000000000000E+00
      8.49391075939876E-18  -2.64046568367640E-42   8.49391075939876E-18  -7.08862075353838E-15   1.80000000000000E+00
      1.80000000000000E+00   0.00000000000000E+00   0.00000000000000E+00   1.10169254753133E-07   1.07421263876788E-59
      1.10169254753133E-07   3.54845631780846E-15
}
