DF-ISE text

Info {
  version   = 1.0
  type      = xyplot
  datasets  = [
    "time"
    "source OuterVoltage" "source InnerVoltage" "source QuasiFermiPotential" "source DisplacementCurrent" "source eCurrent"
    "source hCurrent" "source TotalCurrent" "source Charge" "gate OuterVoltage" "gate InnerVoltage"
    "gate QuasiFermiPotential" "gate DisplacementCurrent" "gate eCurrent" "gate hCurrent" "gate TotalCurrent"
    "gate Charge" "substrate OuterVoltage" "substrate InnerVoltage" "substrate QuasiFermiPotential" "substrate DisplacementCurrent"
    "substrate eCurrent" "substrate hCurrent" "substrate TotalCurrent" "substrate Charge" "drain OuterVoltage"
    "drain InnerVoltage" "drain QuasiFermiPotential" "drain DisplacementCurrent" "drain eCurrent" "drain hCurrent"
    "drain TotalCurrent" "drain Charge" ]
  functions = [
    Time
    OuterVoltage InnerVoltage QuasiFermiPotential DisplacementCurrent eCurrent
    hCurrent TotalCurrent Charge OuterVoltage InnerVoltage
    QuasiFermiPotential DisplacementCurrent eCurrent hCurrent TotalCurrent
    Charge OuterVoltage InnerVoltage QuasiFermiPotential DisplacementCurrent
    eCurrent hCurrent TotalCurrent Charge OuterVoltage
    InnerVoltage QuasiFermiPotential DisplacementCurrent eCurrent hCurrent
    TotalCurrent Charge ]
}

Data {
      5.00000000000000E-02
      0.00000000000000E+00   0.00000000000000E+00   0.00000000000000E+00   0.00000000000000E+00  -3.66126481829355E-15
     -3.61251582664653E-44  -3.66126481829355E-15   2.02038855032110E-15   4.50000000000000E-01   4.50000000000000E-01
      0.00000000000000E+00   0.00000000000000E+00   0.00000000000000E+00   0.00000000000000E+00   0.00000000000000E+00
      4.75659233076728E-15  -1.80000000000000E+00  -1.80000000000000E+00   0.00000000000000E+00   0.00000000000000E+00
     -4.31941702993823E-18   1.10607590201520E-43  -4.31941702993823E-18  -8.89765985584696E-15   9.00000000000000E-02
      9.00000000000000E-02   0.00000000000000E+00   0.00000000000000E+00   3.66558423532349E-15  -7.44824319350545E-44
      3.66558423532349E-15   2.12067897475857E-15
      1.00000000000000E-01
      0.00000000000000E+00   0.00000000000000E+00   0.00000000000000E+00   0.00000000000000E+00  -3.74537833802624E-15
     -2.74313004830381E-43  -3.74537833802624E-15   2.02038855032103E-15   4.50000000000000E-01   4.50000000000000E-01
      0.00000000000000E+00   0.00000000000000E+00   0.00000000000000E+00   0.00000000000000E+00   0.00000000000000E+00
      4.69164078181594E-15  -1.80000000000000E+00  -1.80000000000000E+00   0.00000000000000E+00   0.00000000000000E+00
     -4.43953037258544E-19   2.89714554499303E-43  -4.43953037258544E-19  -8.93583303310874E-15   1.80000000000000E-01
      1.80000000000000E-01   0.00000000000000E+00   0.00000000000000E+00   3.74582229106349E-15  -1.54015496689218E-44
      3.74582229106349E-15   2.22380370097177E-15
      1.50000000000000E-01
      0.00000000000000E+00   0.00000000000000E+00   0.00000000000000E+00   0.00000000000000E+00  -3.75012088506251E-15
     -6.80868668565473E-43  -3.75012088506251E-15   2.02038855032095E-15   4.50000000000000E-01   4.50000000000000E-01
      0.00000000000000E+00   0.00000000000000E+00   0.00000000000000E+00   0.00000000000000E+00   0.00000000000000E+00
      4.62923631804119E-15  -1.80000000000000E+00  -1.80000000000000E+00   0.00000000000000E+00   0.00000000000000E+00
      1.30562081514405E-15   6.82552902283282E-43   1.30562081514405E-15  -8.97645672570925E-15   2.70000000000000E-01
      2.70000000000000E-01   0.00000000000000E+00   0.00000000000000E+00   2.44450006991845E-15  -1.68423371780852E-45
      2.44450006991845E-15   2.32683185734711E-15
      2.00000000000000E-01
      0.00000000000000E+00   0.00000000000000E+00   0.00000000000000E+00   0.00000000000000E+00  -3.75711694260603E-15
     -7.96011657538149E-43  -3.75711694260603E-15   2.02038855032088E-15   4.50000000000000E-01   4.50000000000000E-01
      0.00000000000000E+00   0.00000000000000E+00   0.00000000000000E+00   0.00000000000000E+00   0.00000000000000E+00
      4.56867378635608E-15  -1.80000000000000E+00  -1.80000000000000E+00   0.00000000000000E+00   0.00000000000000E+00
     -2.41703798260081E-15   7.96270250671278E-43  -2.41703798260081E-15  -9.01703105140650E-15   3.60000000000000E-01
      3.60000000000000E-01   0.00000000000000E+00   0.00000000000000E+00   6.17415492520683E-15  -2.58593133128220E-46
      6.17415492520683E-15   2.42796871472955E-15
      2.50000000000000E-01
      0.00000000000000E+00   0.00000000000000E+00   0.00000000000000E+00   0.00000000000000E+00  -3.76356106096341E-15
     -2.22154642171131E-43  -3.76356106096341E-15   2.02038855032080E-15   4.50000000000000E-01   4.50000000000000E-01
      0.00000000000000E+00   0.00000000000000E+00   0.00000000000000E+00   0.00000000000000E+00   0.00000000000000E+00
      4.51007560527072E-15  -1.80000000000000E+00  -1.80000000000000E+00   0.00000000000000E+00   0.00000000000000E+00
     -9.79834567685363E-20   2.22177711683404E-43  -9.79834567685363E-20  -9.05673462375207E-15   4.50000000000000E-01
      4.50000000000000E-01   0.00000000000000E+00   0.00000000000000E+00   3.76365904442018E-15  -2.30695122735966E-47
      3.76365904442018E-15   2.52627046816057E-15
      3.00000000000000E-01
      0.00000000000000E+00   0.00000000000000E+00   0.00000000000000E+00   0.00000000000000E+00  -3.76870545361803E-15
     -3.16941054473921E-43  -3.76870545361803E-15   2.02038855032072E-15   4.50000000000000E-01   4.50000000000000E-01
      0.00000000000000E+00   0.00000000000000E+00   0.00000000000000E+00   0.00000000000000E+00   0.00000000000000E+00
      4.45347127302326E-15  -1.80000000000000E+00  -1.80000000000000E+00   0.00000000000000E+00   0.00000000000000E+00
     -5.05269815358072E-19   3.16946887471246E-43  -5.05269815358072E-19  -9.09536008688680E-15   5.40000000000000E-01
      5.40000000000000E-01   0.00000000000000E+00   0.00000000000000E+00   3.76921072343339E-15  -5.83299732532050E-48
      3.76921072343339E-15   2.62150026354281E-15
      3.50000000000000E-01
      0.00000000000000E+00   0.00000000000000E+00   0.00000000000000E+00   0.00000000000000E+00  -3.77293175109139E-15
     -5.97336137161951E-43  -3.77293175109139E-15   2.02038855032065E-15   4.50000000000000E-01   4.50000000000000E-01
      0.00000000000000E+00   0.00000000000000E+00   0.00000000000000E+00   0.00000000000000E+00   0.00000000000000E+00
      4.39865887489792E-15  -1.80000000000000E+00  -1.80000000000000E+00   0.00000000000000E+00   0.00000000000000E+00
     -3.93617644471209E-17   5.97336107786558E-43  -3.93617644471209E-17  -9.13297654967302E-15   6.30000000000000E-01
      6.30000000000000E-01   0.00000000000000E+00   0.00000000000000E+00   3.81229351553851E-15   2.93753932877060E-50
      3.81229351553851E-15   2.71392912445446E-15
      4.00000000000000E-01
      0.00000000000000E+00   0.00000000000000E+00   0.00000000000000E+00   0.00000000000000E+00  -3.77889921708057E-15
     -1.27156230984067E-43  -3.77889921708057E-15   2.02038855032058E-15   4.50000000000000E-01   4.50000000000000E-01
      0.00000000000000E+00   0.00000000000000E+00   0.00000000000000E+00   0.00000000000000E+00   0.00000000000000E+00
      4.34555209535145E-15  -1.80000000000000E+00  -1.80000000000000E+00   0.00000000000000E+00   0.00000000000000E+00
     -6.42465572949811E-19   1.27156235807692E-43  -6.42465572949811E-19  -9.16973685824756E-15   7.20000000000000E-01
      7.20000000000000E-01   0.00000000000000E+00   0.00000000000000E+00   3.77954168265352E-15  -4.82362487271659E-51
      3.77954168265352E-15   2.80379621257553E-15
      4.50000000000000E-01
      0.00000000000000E+00   0.00000000000000E+00   0.00000000000000E+00   0.00000000000000E+00  -3.78415368016638E-15
     -2.93343206561877E-43  -3.78415368016638E-15   2.02038855032050E-15   4.50000000000000E-01   4.50000000000000E-01
      0.00000000000000E+00   0.00000000000000E+00   0.00000000000000E+00   0.00000000000000E+00   0.00000000000000E+00
      4.29397571926721E-15  -1.80000000000000E+00  -1.80000000000000E+00   0.00000000000000E+00   0.00000000000000E+00
     -2.08796407795914E-19   2.93343211352774E-43  -2.08796407795914E-19  -9.20580749758303E-15   8.10000000000000E-01
      8.10000000000000E-01   0.00000000000000E+00   0.00000000000000E+00   3.78436247657418E-15  -4.79089666755552E-51
      3.78436247657418E-15   2.89144322799533E-15
      5.00000000000000E-01
      0.00000000000000E+00   0.00000000000000E+00   0.00000000000000E+00   0.00000000000000E+00  -3.78769715206887E-15
     -4.65800240436440E-43  -3.78769715206887E-15   2.02038855032043E-15   4.50000000000000E-01   4.50000000000000E-01
      0.00000000000000E+00   0.00000000000000E+00   0.00000000000000E+00   0.00000000000000E+00   0.00000000000000E+00
      4.24347824371662E-15  -1.80000000000000E+00  -1.80000000000000E+00   0.00000000000000E+00   0.00000000000000E+00
     -1.40395471766659E-18   4.65800240790782E-43  -1.40395471766659E-18  -9.24134333332818E-15   9.00000000000000E-01
      9.00000000000000E-01   0.00000000000000E+00   0.00000000000000E+00   3.78910110678654E-15  -3.54341509346963E-52
      3.78910110678654E-15   2.97747653929112E-15
      5.50000000000000E-01
      0.00000000000000E+00   0.00000000000000E+00   0.00000000000000E+00   0.00000000000000E+00  -3.79389352377788E-15
     -7.05127612862801E-43  -3.79389352377788E-15   2.02038855032036E-15   4.50000000000000E-01   4.50000000000000E-01
      0.00000000000000E+00   0.00000000000000E+00   0.00000000000000E+00   0.00000000000000E+00   0.00000000000000E+00
      4.19369999604898E-15  -1.80000000000000E+00  -1.80000000000000E+00   0.00000000000000E+00   0.00000000000000E+00
      3.23361771122406E-19   7.05127612813021E-43   3.23361771122406E-19  -9.27644483157544E-15   9.90000000000000E-01
      9.90000000000000E-01   0.00000000000000E+00   0.00000000000000E+00   3.79357016200675E-15   4.97803500028328E-53
      3.79357016200675E-15   3.06235628520610E-15
      6.00000000000000E-01
      0.00000000000000E+00   0.00000000000000E+00   0.00000000000000E+00   0.00000000000000E+00  -3.79581126749183E-15
     -2.52356071805879E-43  -3.79581126749183E-15   2.02038855032029E-15   4.50000000000000E-01   4.50000000000000E-01
      0.00000000000000E+00   0.00000000000000E+00   0.00000000000000E+00   0.00000000000000E+00   0.00000000000000E+00
      4.14452819979944E-15  -1.80000000000000E+00  -1.80000000000000E+00   0.00000000000000E+00   0.00000000000000E+00
     -2.24335554859487E-18   2.52356071800244E-43  -2.24335554859487E-18  -9.31116456460844E-15   1.08000000000000E+00
      1.08000000000000E+00   0.00000000000000E+00   0.00000000000000E+00   3.79805462304042E-15   5.63488852167836E-54
      3.79805462304042E-15   3.14624781448873E-15
      6.50000000000000E-01
      0.00000000000000E+00   0.00000000000000E+00   0.00000000000000E+00   0.00000000000000E+00  -3.80236597803431E-15
     -5.49585721450223E-43  -3.80236597803431E-15   2.02038855032021E-15   4.50000000000000E-01   4.50000000000000E-01
      0.00000000000000E+00   0.00000000000000E+00   0.00000000000000E+00   0.00000000000000E+00   0.00000000000000E+00
      4.09598955160227E-15  -1.80000000000000E+00  -1.80000000000000E+00   0.00000000000000E+00   0.00000000000000E+00
     -1.09353814601930E-19   5.49585721454580E-43  -1.09353814601930E-19  -9.34553426297524E-15   1.17000000000000E+00
      1.17000000000000E+00   0.00000000000000E+00   0.00000000000000E+00   3.80247533184891E-15  -4.35734681405170E-54
      3.80247533184891E-15   3.22915616105275E-15
      7.00000000000000E-01
      0.00000000000000E+00   0.00000000000000E+00   0.00000000000000E+00   0.00000000000000E+00  -3.80685340706996E-15
     -1.44579843181241E-43  -3.80685340706996E-15   2.02038855032014E-15   4.50000000000000E-01   4.50000000000000E-01
      0.00000000000000E+00   0.00000000000000E+00   0.00000000000000E+00   0.00000000000000E+00   0.00000000000000E+00
      4.04811590589749E-15  -1.80000000000000E+00  -1.80000000000000E+00   0.00000000000000E+00   0.00000000000000E+00
      2.14766288666394E-20   1.44579843181582E-43   2.14766288666394E-20  -9.37957913982150E-15   1.26000000000000E+00
      1.26000000000000E+00   0.00000000000000E+00   0.00000000000000E+00   3.80683193044109E-15  -3.40489949253155E-55
      3.80683193044109E-15   3.31107468360388E-15
      7.50000000000000E-01
      0.00000000000000E+00   0.00000000000000E+00   0.00000000000000E+00   0.00000000000000E+00  -3.81043593708919E-15
     -3.26133421597640E-43  -3.81043593708919E-15   2.02038855032007E-15   4.50000000000000E-01   4.50000000000000E-01
      0.00000000000000E+00   0.00000000000000E+00   0.00000000000000E+00   0.00000000000000E+00   0.00000000000000E+00
      4.00090869598546E-15  -1.80000000000000E+00  -1.80000000000000E+00   0.00000000000000E+00   0.00000000000000E+00
     -6.87753143363017E-19   3.26133421597680E-43  -6.87753143363017E-19  -9.41331938790346E-15   1.35000000000000E+00
      1.35000000000000E+00   0.00000000000000E+00   0.00000000000000E+00   3.81112369023256E-15  -4.04741529623346E-56
      3.81112369023256E-15   3.39202214159793E-15
      8.00000000000000E-01
      0.00000000000000E+00   0.00000000000000E+00   0.00000000000000E+00   0.00000000000000E+00  -3.81430250496630E-15
     -5.28067868025990E-43  -3.81430250496630E-15   2.02038855031999E-15   4.50000000000000E-01   4.50000000000000E-01
      0.00000000000000E+00   0.00000000000000E+00   0.00000000000000E+00   0.00000000000000E+00   0.00000000000000E+00
      3.95440624638702E-15  -1.80000000000000E+00  -1.80000000000000E+00   0.00000000000000E+00   0.00000000000000E+00
     -1.04433668094194E-18   5.28067868025994E-43  -1.04433668094194E-18  -9.44676864417199E-15   1.44000000000000E+00
      1.44000000000000E+00   0.00000000000000E+00   0.00000000000000E+00   3.81534684164724E-15  -4.70742911705137E-57
      3.81534684164724E-15   3.47197384746498E-15
      8.50000000000000E-01
      0.00000000000000E+00   0.00000000000000E+00   0.00000000000000E+00   0.00000000000000E+00  -3.82007991847729E-15
     -1.15043485359454E-43  -3.82007991847729E-15   2.02038855031992E-15   4.50000000000000E-01   4.50000000000000E-01
      0.00000000000000E+00   0.00000000000000E+00   0.00000000000000E+00   0.00000000000000E+00   0.00000000000000E+00
      3.90871905573707E-15  -1.80000000000000E+00  -1.80000000000000E+00   0.00000000000000E+00   0.00000000000000E+00
      5.84792648555830E-19   1.15043485359454E-43   5.84792648555830E-19  -9.47993544552283E-15   1.53000000000000E+00
      1.53000000000000E+00   0.00000000000000E+00   0.00000000000000E+00   3.81949512582874E-15   3.57646635900783E-58
      3.81949512582874E-15   3.55082783946583E-15
      9.00000000000000E-01
      0.00000000000000E+00   0.00000000000000E+00   0.00000000000000E+00   0.00000000000000E+00  -3.82332852252975E-15
     -2.72539660027658E-43  -3.82332852252975E-15   2.02038855031984E-15   4.50000000000000E-01   4.50000000000000E-01
      0.00000000000000E+00   0.00000000000000E+00   0.00000000000000E+00   0.00000000000000E+00   0.00000000000000E+00
      3.86396200629405E-15  -1.80000000000000E+00  -1.80000000000000E+00   0.00000000000000E+00   0.00000000000000E+00
     -2.33146185001801E-19   2.72539660027659E-43  -2.33146185001801E-19  -9.51282761557563E-15   1.62000000000000E+00
      1.62000000000000E+00   0.00000000000000E+00   0.00000000000000E+00   3.82356166871475E-15  -1.56636090989003E-58
      3.82356166871475E-15   3.62847705896172E-15
      9.50000000000000E-01
      0.00000000000000E+00   0.00000000000000E+00   0.00000000000000E+00   0.00000000000000E+00  -3.82701912200046E-15
     -3.23592492541988E-43  -3.82701912200046E-15   2.02038855031977E-15   4.50000000000000E-01   4.50000000000000E-01
      0.00000000000000E+00   0.00000000000000E+00   0.00000000000000E+00   0.00000000000000E+00   0.00000000000000E+00
      3.82011235253747E-15  -1.80000000000000E+00  -1.80000000000000E+00   0.00000000000000E+00   0.00000000000000E+00
     -5.26562942747320E-19   3.23592492541988E-43  -5.26562942747320E-19  -9.54545788834068E-15   1.71000000000000E+00
      1.71000000000000E+00   0.00000000000000E+00   0.00000000000000E+00   3.82754568494321E-15  -7.55537523632475E-60
      3.82754568494321E-15   3.70495698548346E-15
      1.00000000000000E+00
      0.00000000000000E+00   0.00000000000000E+00   0.00000000000000E+00   0.00000000000000E+00  -3.83008417399903E-15
     -6.40234162928773E-43  -3.83008417399903E-15   2.02038855031969E-15   4.50000000000000E-01   4.50000000000000E-01
      0.00000000000000E+00   0.00000000000000E+00   0.00000000000000E+00   0.00000000000000E+00   0.00000000000000E+00
      3.77696864887714E-15  -1.80000000000000E+00  -1.80000000000000E+00   0.00000000000000E+00   0.00000000000000E+00
     -1.37103644934490E-18   6.40234162928772E-43  -1.37103644934490E-18  -9.57784449655933E-15   1.80000000000000E+00
      1.80000000000000E+00   0.00000000000000E+00   0.00000000000000E+00   3.83145521044837E-15   4.57169127795291E-61
      3.83145521044837E-15   3.78048729736250E-15
}
