DF-ISE text

Info {
  version   = 1.0
  type      = xyplot
  datasets  = [
    "time"
    "source OuterVoltage" "source InnerVoltage" "source QuasiFermiPotential" "source DisplacementCurrent" "source eCurrent"
    "source hCurrent" "source TotalCurrent" "source Charge" "gate OuterVoltage" "gate InnerVoltage"
    "gate QuasiFermiPotential" "gate DisplacementCurrent" "gate eCurrent" "gate hCurrent" "gate TotalCurrent"
    "gate Charge" "substrate OuterVoltage" "substrate InnerVoltage" "substrate QuasiFermiPotential" "substrate DisplacementCurrent"
    "substrate eCurrent" "substrate hCurrent" "substrate TotalCurrent" "substrate Charge" "drain OuterVoltage"
    "drain InnerVoltage" "drain QuasiFermiPotential" "drain DisplacementCurrent" "drain eCurrent" "drain hCurrent"
    "drain TotalCurrent" "drain Charge" ]
  functions = [
    Time
    OuterVoltage InnerVoltage QuasiFermiPotential DisplacementCurrent eCurrent
    hCurrent TotalCurrent Charge OuterVoltage InnerVoltage
    QuasiFermiPotential DisplacementCurrent eCurrent hCurrent TotalCurrent
    Charge OuterVoltage InnerVoltage QuasiFermiPotential DisplacementCurrent
    eCurrent hCurrent TotalCurrent Charge OuterVoltage
    InnerVoltage QuasiFermiPotential DisplacementCurrent eCurrent hCurrent
    TotalCurrent Charge ]
}

Data {
      5.00000000000000E-02
      0.00000000000000E+00   0.00000000000000E+00   0.00000000000000E+00   0.00000000000000E+00   4.12453412175326E-19
     -5.58150915724503E-43   4.12453412175326E-19   2.31816534615894E-15   0.00000000000000E+00   0.00000000000000E+00
      0.00000000000000E+00   0.00000000000000E+00   0.00000000000000E+00   0.00000000000000E+00   0.00000000000000E+00
      3.67464810670672E-15  -1.80000000000000E+00  -1.80000000000000E+00   0.00000000000000E+00   0.00000000000000E+00
     -8.22411992582451E-19   6.20163211361980E-43  -8.22411992582451E-19  -8.41088371300014E-15   9.00000000000000E-02
      9.00000000000000E-02   0.00000000000000E+00   0.00000000000000E+00   4.09958580407126E-19  -6.20122956374764E-44
      4.09958580407126E-19   2.41807026013449E-15
      1.00000000000000E-01
      0.00000000000000E+00   0.00000000000000E+00   0.00000000000000E+00   0.00000000000000E+00   4.10157199921830E-19
     -1.72959149433188E-43   4.10157199921830E-19   2.31816534615893E-15   0.00000000000000E+00   0.00000000000000E+00
      0.00000000000000E+00   0.00000000000000E+00   0.00000000000000E+00   0.00000000000000E+00   0.00000000000000E+00
      3.61959978738471E-15  -1.80000000000000E+00  -1.80000000000000E+00   0.00000000000000E+00   0.00000000000000E+00
      2.05098931537614E-18   1.82347018771532E-43   2.05098931537614E-18  -8.45338736702781E-15   1.80000000000000E-01
      1.80000000000000E-01   0.00000000000000E+00   0.00000000000000E+00  -2.46114651529797E-18  -9.38786933834360E-45
     -2.46114651529797E-18   2.51562223348418E-15
      1.50000000000000E-01
      0.00000000000000E+00   0.00000000000000E+00   0.00000000000000E+00   0.00000000000000E+00   4.10786174169822E-19
     -3.88787020673876E-43   4.10786174169822E-19   2.31816534615892E-15   0.00000000000000E+00   0.00000000000000E+00
      0.00000000000000E+00   0.00000000000000E+00   0.00000000000000E+00   0.00000000000000E+00   0.00000000000000E+00
      3.56614253533731E-15  -1.80000000000000E+00  -1.80000000000000E+00   0.00000000000000E+00   0.00000000000000E+00
     -1.29035538577359E-18   3.90688657629239E-43  -1.29035538577359E-18  -8.49505449759899E-15   2.70000000000000E-01
      2.70000000000000E-01   0.00000000000000E+00   0.00000000000000E+00   8.79569211603773E-19  -1.90163695536326E-45
      8.79569211603773E-19   2.61074661610276E-15
      2.00000000000000E-01
      0.00000000000000E+00   0.00000000000000E+00   0.00000000000000E+00   0.00000000000000E+00   4.10557586666316E-19
     -1.35364755944451E-43   4.10557586666316E-19   2.31816534615891E-15   0.00000000000000E+00   0.00000000000000E+00
      0.00000000000000E+00   0.00000000000000E+00   0.00000000000000E+00   0.00000000000000E+00   0.00000000000000E+00
      3.51430984206861E-15  -1.80000000000000E+00  -1.80000000000000E+00   0.00000000000000E+00   0.00000000000000E+00
     -8.24552322820784E-19   1.35748140643785E-43  -8.24552322820784E-19  -8.53571394962728E-15   3.60000000000000E-01
      3.60000000000000E-01   0.00000000000000E+00   0.00000000000000E+00   4.13994736154467E-19  -3.83384699334596E-46
      4.13994736154467E-19   2.70323876139976E-15
      2.50000000000000E-01
      0.00000000000000E+00   0.00000000000000E+00   0.00000000000000E+00   0.00000000000000E+00   4.10252581309285E-19
     -7.00313870440174E-43   4.10252581309285E-19   2.31816534615890E-15   0.00000000000000E+00   0.00000000000000E+00
      0.00000000000000E+00   0.00000000000000E+00   0.00000000000000E+00   0.00000000000000E+00   0.00000000000000E+00
      3.46377805051447E-15  -1.80000000000000E+00  -1.80000000000000E+00   0.00000000000000E+00   0.00000000000000E+00
     -8.25663075756612E-19   7.00338852773389E-43  -8.25663075756612E-19  -8.57524922894151E-15   4.50000000000000E-01
      4.50000000000000E-01   0.00000000000000E+00   0.00000000000000E+00   4.15410494447328E-19  -2.49823332149747E-47
      4.15410494447328E-19   2.79330583226814E-15
      3.00000000000000E-01
      0.00000000000000E+00   0.00000000000000E+00   0.00000000000000E+00   0.00000000000000E+00   4.09690279599924E-19
     -5.38257531848480E-43   4.09690279599924E-19   2.31816534615889E-15   0.00000000000000E+00   0.00000000000000E+00
      0.00000000000000E+00   0.00000000000000E+00   0.00000000000000E+00   0.00000000000000E+00   0.00000000000000E+00
      3.41410322779484E-15  -1.80000000000000E+00  -1.80000000000000E+00   0.00000000000000E+00   0.00000000000000E+00
     -7.96804488957444E-19   5.38260842725435E-43  -7.96804488957444E-19  -8.61368269676867E-15   5.40000000000000E-01
      5.40000000000000E-01   0.00000000000000E+00   0.00000000000000E+00   3.87114209357520E-19  -3.31087695513895E-48
      3.87114209357520E-19   2.88141412281494E-15
      3.50000000000000E-01
      0.00000000000000E+00   0.00000000000000E+00   0.00000000000000E+00   0.00000000000000E+00   4.07996776993918E-19
     -6.84090681970665E-43   4.07996776993918E-19   2.31816534615889E-15   0.00000000000000E+00   0.00000000000000E+00
      0.00000000000000E+00   0.00000000000000E+00   0.00000000000000E+00   0.00000000000000E+00   0.00000000000000E+00
      3.36508455163073E-15  -1.80000000000000E+00  -1.80000000000000E+00   0.00000000000000E+00   0.00000000000000E+00
     -8.26425430944209E-19   6.84090793331665E-43  -8.26425430944209E-19  -8.65117586253662E-15   6.30000000000000E-01
      6.30000000000000E-01   0.00000000000000E+00   0.00000000000000E+00   4.18428653950291E-19  -1.11361000079749E-49
      4.18428653950291E-19   2.96792596474702E-15
      4.00000000000000E-01
      0.00000000000000E+00   0.00000000000000E+00   0.00000000000000E+00   0.00000000000000E+00   4.08675507347545E-19
     -7.22573347021987E-43   4.08675507347545E-19   2.31816534615888E-15   0.00000000000000E+00   0.00000000000000E+00
      0.00000000000000E+00   0.00000000000000E+00   0.00000000000000E+00   0.00000000000000E+00   0.00000000000000E+00
      3.31670960586297E-15  -1.80000000000000E+00  -1.80000000000000E+00   0.00000000000000E+00   0.00000000000000E+00
     -8.29437520982523E-19   7.22573429310537E-43  -8.29437520982523E-19  -8.68792482319408E-15   7.20000000000000E-01
      7.20000000000000E-01   0.00000000000000E+00   0.00000000000000E+00   4.20762013634979E-19  -8.22885502430811E-50
      4.20762013634979E-19   3.05304987117223E-15
      4.50000000000000E-01
      0.00000000000000E+00   0.00000000000000E+00   0.00000000000000E+00   0.00000000000000E+00   4.07618915029030E-19
     -5.26600080457483E-43   4.07618915029030E-19   2.31816534615887E-15   0.00000000000000E+00   0.00000000000000E+00
      0.00000000000000E+00   0.00000000000000E+00   0.00000000000000E+00   0.00000000000000E+00   0.00000000000000E+00
      3.26899505337379E-15  -1.80000000000000E+00  -1.80000000000000E+00   0.00000000000000E+00   0.00000000000000E+00
     -8.28659013654060E-19   5.26600089335590E-43  -8.28659013654060E-19  -8.72408602282376E-15   8.10000000000000E-01
      8.10000000000000E-01   0.00000000000000E+00   0.00000000000000E+00   4.21040098625029E-19  -8.87810664219061E-51
      4.21040098625029E-19   3.13692562329110E-15
      5.00000000000000E-01
      0.00000000000000E+00   0.00000000000000E+00   0.00000000000000E+00   0.00000000000000E+00   4.09976626071767E-19
     -5.49275827340144E-43   4.09976626071767E-19   2.31816534615886E-15   0.00000000000000E+00   0.00000000000000E+00
      0.00000000000000E+00   0.00000000000000E+00   0.00000000000000E+00   0.00000000000000E+00   0.00000000000000E+00
      3.22193317819411E-15  -1.80000000000000E+00  -1.80000000000000E+00   0.00000000000000E+00   0.00000000000000E+00
     -8.32254714813096E-19   5.49275828620586E-43  -8.32254714813096E-19  -8.75976408848894E-15   9.00000000000000E-01
      9.00000000000000E-01   0.00000000000000E+00   0.00000000000000E+00   4.22278088741329E-19  -1.28044113044389E-51
      4.22278088741329E-19   3.21966556413597E-15
      5.50000000000000E-01
      0.00000000000000E+00   0.00000000000000E+00   0.00000000000000E+00   0.00000000000000E+00   4.08834467047326E-19
     -5.65199778624241E-43   4.08834467047326E-19   2.31816534615885E-15   0.00000000000000E+00   0.00000000000000E+00
      0.00000000000000E+00   0.00000000000000E+00   0.00000000000000E+00   0.00000000000000E+00   0.00000000000000E+00
      3.17555210362876E-15  -1.80000000000000E+00  -1.80000000000000E+00   0.00000000000000E+00   0.00000000000000E+00
     -8.32290751310486E-19   5.65199778547365E-43  -8.32290751310486E-19  -8.79501970463079E-15   9.90000000000000E-01
      9.90000000000000E-01   0.00000000000000E+00   0.00000000000000E+00   4.23456284263161E-19   7.68756929321950E-53
      4.23456284263161E-19   3.30130225484319E-15
      6.00000000000000E-01
      0.00000000000000E+00   0.00000000000000E+00   0.00000000000000E+00   0.00000000000000E+00   4.10641188816070E-19
     -2.86463170488502E-43   4.10641188816070E-19   2.31816534615884E-15   0.00000000000000E+00   0.00000000000000E+00
      0.00000000000000E+00   0.00000000000000E+00   0.00000000000000E+00   0.00000000000000E+00   0.00000000000000E+00
      3.12995236285893E-15  -1.80000000000000E+00  -1.80000000000000E+00   0.00000000000000E+00   0.00000000000000E+00
     -8.35238459790764E-19   2.86463170527951E-43  -8.35238459790764E-19  -8.82988509498924E-15   1.08000000000000E+00
      1.08000000000000E+00   0.00000000000000E+00   0.00000000000000E+00   4.24597270974694E-19  -3.94486432555026E-53
      4.24597270974694E-19   3.38176738597146E-15
      6.50000000000000E-01
      0.00000000000000E+00   0.00000000000000E+00   0.00000000000000E+00   0.00000000000000E+00   4.09619937502779E-19
     -2.81230315891785E-43   4.09619937502779E-19   2.31816534615883E-15   0.00000000000000E+00   0.00000000000000E+00
      0.00000000000000E+00   0.00000000000000E+00   0.00000000000000E+00   0.00000000000000E+00   0.00000000000000E+00
      3.08525214887625E-15  -1.80000000000000E+00  -1.80000000000000E+00   0.00000000000000E+00   0.00000000000000E+00
     -8.35325923016397E-19   2.81230315896800E-43  -8.35325923016397E-19  -8.86438104736865E-15   1.17000000000000E+00
      1.17000000000000E+00   0.00000000000000E+00   0.00000000000000E+00   4.25705985513617E-19  -5.01545347884733E-54
      4.25705985513617E-19   3.46096355233355E-15
      7.00000000000000E-01
      0.00000000000000E+00   0.00000000000000E+00   0.00000000000000E+00   0.00000000000000E+00   4.09374638215640E-19
     -3.02705337831450E-43   4.09374638215640E-19   2.31816534615883E-15   0.00000000000000E+00   0.00000000000000E+00
      0.00000000000000E+00   0.00000000000000E+00   0.00000000000000E+00   0.00000000000000E+00   0.00000000000000E+00
      3.04145925307833E-15  -1.80000000000000E+00  -1.80000000000000E+00   0.00000000000000E+00   0.00000000000000E+00
     -8.36159666870556E-19   3.02705337832856E-43  -8.36159666870556E-19  -8.89852909946225E-15   1.26000000000000E+00
      1.26000000000000E+00   0.00000000000000E+00   0.00000000000000E+00   4.26785028654916E-19  -1.40627709391570E-54
      4.26785028654916E-19   3.53890450022510E-15
      7.50000000000000E-01
      0.00000000000000E+00   0.00000000000000E+00   0.00000000000000E+00   0.00000000000000E+00   4.08392192460128E-19
     -3.81296865371686E-43   4.08392192460128E-19   2.31816534615882E-15   0.00000000000000E+00   0.00000000000000E+00
      0.00000000000000E+00   0.00000000000000E+00   0.00000000000000E+00   0.00000000000000E+00   0.00000000000000E+00
      2.99839659211205E-15  -1.80000000000000E+00  -1.80000000000000E+00   0.00000000000000E+00   0.00000000000000E+00
     -8.36229931727931E-19   3.81296865371776E-43  -8.36229931727931E-19  -8.93235466759081E-15   1.35000000000000E+00
      1.35000000000000E+00   0.00000000000000E+00   0.00000000000000E+00   4.27837739267803E-19  -9.00764620543505E-56
      4.27837739267803E-19   3.61579272931996E-15
      8.00000000000000E-01
      0.00000000000000E+00   0.00000000000000E+00   0.00000000000000E+00   0.00000000000000E+00   4.07889057681503E-19
     -1.47408987302062E-43   4.07889057681503E-19   2.31816534615881E-15   0.00000000000000E+00   0.00000000000000E+00
      0.00000000000000E+00   0.00000000000000E+00   0.00000000000000E+00   0.00000000000000E+00   0.00000000000000E+00
      2.95584547321442E-15  -1.80000000000000E+00  -1.80000000000000E+00   0.00000000000000E+00   0.00000000000000E+00
     -8.36757055235681E-19   1.47408987302118E-43  -8.36757055235681E-19  -8.96588032134886E-15   1.44000000000000E+00
      1.44000000000000E+00   0.00000000000000E+00   0.00000000000000E+00   4.28867997554178E-19  -5.59213468409776E-56
      4.28867997554178E-19   3.69186950197563E-15
      8.50000000000000E-01
      0.00000000000000E+00   0.00000000000000E+00   0.00000000000000E+00   0.00000000000000E+00   4.07642307768727E-19
     -1.55685984399433E-43   4.07642307768727E-19   2.31816534615880E-15   0.00000000000000E+00   0.00000000000000E+00
      0.00000000000000E+00   0.00000000000000E+00   0.00000000000000E+00   0.00000000000000E+00   0.00000000000000E+00
      2.91369449067551E-15  -1.80000000000000E+00  -1.80000000000000E+00   0.00000000000000E+00   0.00000000000000E+00
     -8.37521217750203E-19   1.55685984399439E-43  -8.37521217750203E-19  -8.99912172816634E-15   1.53000000000000E+00
      1.53000000000000E+00   0.00000000000000E+00   0.00000000000000E+00   4.29878909981476E-19  -5.94578513864202E-57
      4.29878909981476E-19   3.76726189133204E-15
      9.00000000000000E-01
      0.00000000000000E+00   0.00000000000000E+00   0.00000000000000E+00   0.00000000000000E+00   4.07532064733287E-19
     -7.26644183265319E-43   4.07532064733287E-19   2.31816534615879E-15   0.00000000000000E+00   0.00000000000000E+00
      0.00000000000000E+00   0.00000000000000E+00   0.00000000000000E+00   0.00000000000000E+00   0.00000000000000E+00
      2.87193892150422E-15  -1.80000000000000E+00  -1.80000000000000E+00   0.00000000000000E+00   0.00000000000000E+00
     -8.38404287543313E-19   7.26644183265319E-43  -8.38404287543313E-19  -9.03209074452651E-15   1.62000000000000E+00
      1.62000000000000E+00   0.00000000000000E+00   0.00000000000000E+00   4.30872222810026E-19   1.12560904668131E-58
      4.30872222810026E-19   3.84198647686350E-15
      9.50000000000000E-01
      0.00000000000000E+00   0.00000000000000E+00   0.00000000000000E+00   0.00000000000000E+00   4.08240771159602E-19
     -7.08625563098211E-43   4.08240771159602E-19   2.31816534615878E-15   0.00000000000000E+00   0.00000000000000E+00
      0.00000000000000E+00   0.00000000000000E+00   0.00000000000000E+00   0.00000000000000E+00   0.00000000000000E+00
      2.83063241238829E-15  -1.80000000000000E+00  -1.80000000000000E+00   0.00000000000000E+00   0.00000000000000E+00
     -8.40089775406367E-19   7.08625563098211E-43  -8.40089775406367E-19  -9.06479782137227E-15   1.71000000000000E+00
      1.71000000000000E+00   0.00000000000000E+00   0.00000000000000E+00   4.31849004246766E-19   5.57680429227364E-59
      4.31849004246766E-19   3.91600006282520E-15
      1.00000000000000E+00
      0.00000000000000E+00   0.00000000000000E+00   0.00000000000000E+00   0.00000000000000E+00   4.05356643467408E-19
     -2.60382945964857E-43   4.05356643467408E-19   2.31816534615877E-15   0.00000000000000E+00   0.00000000000000E+00
      0.00000000000000E+00   0.00000000000000E+00   0.00000000000000E+00   0.00000000000000E+00   0.00000000000000E+00
      2.78984397830906E-15  -1.80000000000000E+00  -1.80000000000000E+00   0.00000000000000E+00   0.00000000000000E+00
     -8.38167320897403E-19   2.60382945964857E-43  -8.38167320897403E-19  -9.09725100860755E-15   1.80000000000000E+00
      1.80000000000000E+00   0.00000000000000E+00   0.00000000000000E+00   4.32810677429995E-19  -3.10542761400641E-59
      4.32810677429995E-19   3.98924168413973E-15
}
