DF-ISE text

Info {
  version   = 1.0
  type      = xyplot
  datasets  = [
    "time"
    "source OuterVoltage" "source InnerVoltage" "source QuasiFermiPotential" "source DisplacementCurrent" "source eCurrent"
    "source hCurrent" "source TotalCurrent" "source Charge" "gate OuterVoltage" "gate InnerVoltage"
    "gate QuasiFermiPotential" "gate DisplacementCurrent" "gate eCurrent" "gate hCurrent" "gate TotalCurrent"
    "gate Charge" "substrate OuterVoltage" "substrate InnerVoltage" "substrate QuasiFermiPotential" "substrate DisplacementCurrent"
    "substrate eCurrent" "substrate hCurrent" "substrate TotalCurrent" "substrate Charge" "drain OuterVoltage"
    "drain InnerVoltage" "drain QuasiFermiPotential" "drain DisplacementCurrent" "drain eCurrent" "drain hCurrent"
    "drain TotalCurrent" "drain Charge" ]
  functions = [
    Time
    OuterVoltage InnerVoltage QuasiFermiPotential DisplacementCurrent eCurrent
    hCurrent TotalCurrent Charge OuterVoltage InnerVoltage
    QuasiFermiPotential DisplacementCurrent eCurrent hCurrent TotalCurrent
    Charge OuterVoltage InnerVoltage QuasiFermiPotential DisplacementCurrent
    eCurrent hCurrent TotalCurrent Charge OuterVoltage
    InnerVoltage QuasiFermiPotential DisplacementCurrent eCurrent hCurrent
    TotalCurrent Charge ]
}

Data {
      5.00000000000000E-02
      0.00000000000000E+00   0.00000000000000E+00   0.00000000000000E+00   0.00000000000000E+00  -3.60503955762974E-05
     -7.89776125214203E-26  -3.60503955762974E-05   7.31061982712458E-16   1.35000000000000E+00   1.35000000000000E+00
      0.00000000000000E+00   0.00000000000000E+00   0.00000000000000E+00   0.00000000000000E+00   0.00000000000000E+00
      5.08397776671967E-15   0.00000000000000E+00   0.00000000000000E+00   0.00000000000000E+00   0.00000000000000E+00
      7.91215125785555E-18   8.76469434146278E-26   7.91215134550249E-18  -6.62762707813741E-15   9.00000000000000E-02
      9.00000000000000E-02   0.00000000000000E+00   0.00000000000000E+00   3.60503955762895E-05  -8.66933089320757E-27
      3.60503955762895E-05   8.12587328705276E-16
      1.00000000000000E-01
      0.00000000000000E+00   0.00000000000000E+00   0.00000000000000E+00   0.00000000000000E+00  -6.35249590433894E-05
     -1.03218665656633E-25  -6.35249590433894E-05   7.31514278882950E-16   1.35000000000000E+00   1.35000000000000E+00
      0.00000000000000E+00   0.00000000000000E+00   0.00000000000000E+00   0.00000000000000E+00   0.00000000000000E+00
      4.82891459272170E-15   0.00000000000000E+00   0.00000000000000E+00   0.00000000000000E+00   0.00000000000000E+00
     -2.40745681747369E-17   1.04499643992503E-25  -2.40745680702372E-17  -6.45306752663478E-15   1.80000000000000E-01
      1.80000000000000E-01   0.00000000000000E+00   0.00000000000000E+00   6.35249590434135E-05  -1.28097833587004E-27
      6.35249590434135E-05   8.92638655030136E-16
      1.50000000000000E-01
      0.00000000000000E+00   0.00000000000000E+00   0.00000000000000E+00   0.00000000000000E+00  -8.33005005882646E-05
     -7.65707189131147E-26  -8.33005005882646E-05   7.31816706027738E-16   1.35000000000000E+00   1.35000000000000E+00
      0.00000000000000E+00   0.00000000000000E+00   0.00000000000000E+00   0.00000000000000E+00   0.00000000000000E+00
      4.59195533078269E-15   0.00000000000000E+00   0.00000000000000E+00   0.00000000000000E+00   0.00000000000000E+00
      4.30673418604755E-19   7.66509887998168E-26   4.30673495255744E-19  -6.29523770049476E-15   2.70000000000000E-01
      2.70000000000000E-01   0.00000000000000E+00   0.00000000000000E+00   8.33005005882641E-05  -8.02698867020700E-29
      8.33005005882641E-05   9.71465663684347E-16
      2.00000000000000E-01
      0.00000000000000E+00   0.00000000000000E+00   0.00000000000000E+00   0.00000000000000E+00  -9.64392816852078E-05
     -9.41063812490384E-26  -9.64392816852078E-05   7.32005199420153E-16   1.35000000000000E+00   1.35000000000000E+00
      0.00000000000000E+00   0.00000000000000E+00   0.00000000000000E+00   0.00000000000000E+00   0.00000000000000E+00
      4.37924751287317E-15   0.00000000000000E+00   0.00000000000000E+00   0.00000000000000E+00   0.00000000000000E+00
     -1.15229511542260E-17   9.40941863571580E-26  -1.15229510601318E-17  -6.16100078395347E-15   3.60000000000000E-01
      3.60000000000000E-01   0.00000000000000E+00   0.00000000000000E+00   9.64392816852193E-05   1.21948918805025E-29
      9.64392816852193E-05   1.04974807166015E-15
      2.50000000000000E-01
      0.00000000000000E+00   0.00000000000000E+00   0.00000000000000E+00   0.00000000000000E+00  -1.04165666368050E-04
     -7.45641648134886E-26  -1.04165666368050E-04   7.32110883899641E-16   1.35000000000000E+00   1.35000000000000E+00
      0.00000000000000E+00   0.00000000000000E+00   0.00000000000000E+00   0.00000000000000E+00   0.00000000000000E+00
      4.19695784976455E-15   0.00000000000000E+00   0.00000000000000E+00   0.00000000000000E+00   0.00000000000000E+00
      4.69452841232286E-18   7.45618979049283E-26   4.69452848688476E-18  -6.05724862847111E-15   4.50000000000000E-01
      4.50000000000000E-01   0.00000000000000E+00   0.00000000000000E+00   1.04165666368045E-04   2.26690856030659E-30
      1.04165666368045E-04   1.12817989480691E-15
      3.00000000000000E-01
      0.00000000000000E+00   0.00000000000000E+00   0.00000000000000E+00   0.00000000000000E+00  -1.07969687486588E-04
     -8.19255173553343E-26  -1.07969687486588E-04   7.32161411906876E-16   1.35000000000000E+00   1.35000000000000E+00
      0.00000000000000E+00   0.00000000000000E+00   0.00000000000000E+00   0.00000000000000E+00   0.00000000000000E+00
      4.04836475943876E-15   0.00000000000000E+00   0.00000000000000E+00   0.00000000000000E+00   0.00000000000000E+00
      7.83376553372567E-18   8.19247493113322E-26   7.83376561565042E-18  -5.98819259650576E-15   5.40000000000000E-01
      5.40000000000000E-01   0.00000000000000E+00   0.00000000000000E+00   1.07969687486580E-04   7.68044002168687E-31
      1.07969687486580E-04   1.20766642516012E-15
      3.50000000000000E-01
      0.00000000000000E+00   0.00000000000000E+00   0.00000000000000E+00   0.00000000000000E+00  -1.09657789301564E-04
     -7.16585736524759E-26  -1.09657789301564E-04   7.32183503000339E-16   1.35000000000000E+00   1.35000000000000E+00
      0.00000000000000E+00   0.00000000000000E+00   0.00000000000000E+00   0.00000000000000E+00   0.00000000000000E+00
      3.92759642995397E-15   0.00000000000000E+00   0.00000000000000E+00   0.00000000000000E+00   0.00000000000000E+00
     -5.45044148326780E-18   7.16584910139904E-26  -5.45044141160930E-18  -5.94895088702046E-15   6.30000000000000E-01
      6.30000000000000E-01   0.00000000000000E+00   0.00000000000000E+00   1.09657789301570E-04   8.26384856020920E-32
      1.09657789301570E-04   1.28917095406615E-15
      4.00000000000000E-01
      0.00000000000000E+00   0.00000000000000E+00   0.00000000000000E+00   0.00000000000000E+00  -1.10614702630302E-04
     -1.04603798529356E-25  -1.10614702630302E-04   7.32195932701248E-16   1.35000000000000E+00   1.35000000000000E+00
      0.00000000000000E+00   0.00000000000000E+00   0.00000000000000E+00   0.00000000000000E+00   0.00000000000000E+00
      3.82352388249506E-15   0.00000000000000E+00   0.00000000000000E+00   0.00000000000000E+00   0.00000000000000E+00
     -3.92380198506391E-19   1.04603780527170E-25  -3.92380093902611E-19  -5.92913692814752E-15   7.20000000000000E-01
      7.20000000000000E-01   0.00000000000000E+00   0.00000000000000E+00   1.10614702630303E-04   1.80021859647815E-32
      1.10614702630303E-04   1.37341711295122E-15
      4.50000000000000E-01
      0.00000000000000E+00   0.00000000000000E+00   0.00000000000000E+00   0.00000000000000E+00  -1.11297111255831E-04
     -7.81985125655239E-26  -1.11297111255831E-04   7.32204755218500E-16   1.35000000000000E+00   1.35000000000000E+00
      0.00000000000000E+00   0.00000000000000E+00   0.00000000000000E+00   0.00000000000000E+00   0.00000000000000E+00
      3.73134523617188E-15   0.00000000000000E+00   0.00000000000000E+00   0.00000000000000E+00   0.00000000000000E+00
     -4.98583551320609E-18   7.81985087591798E-26  -4.98583543500758E-18  -5.92480705986606E-15   8.10000000000000E-01
      8.10000000000000E-01   0.00000000000000E+00   0.00000000000000E+00   1.11297111255836E-04   3.80634413027035E-33
      1.11297111255836E-04   1.46125706847569E-15
      5.00000000000000E-01
      0.00000000000000E+00   0.00000000000000E+00   0.00000000000000E+00   0.00000000000000E+00  -1.11848604905493E-04
     -9.08759212114277E-26  -1.11848604905493E-04   7.32211859754389E-16   1.35000000000000E+00   1.35000000000000E+00
      0.00000000000000E+00   0.00000000000000E+00   0.00000000000000E+00   0.00000000000000E+00   0.00000000000000E+00
      3.64931837378857E-15   0.00000000000000E+00   0.00000000000000E+00   0.00000000000000E+00   0.00000000000000E+00
     -5.68262946916666E-18   9.08759209437187E-26  -5.68262937829074E-18  -5.93567306991320E-15   9.00000000000000E-01
      9.00000000000000E-01   0.00000000000000E+00   0.00000000000000E+00   1.11848604905499E-04   2.67709077127408E-34
      1.11848604905499E-04   1.55414283637023E-15
      5.50000000000000E-01
      0.00000000000000E+00   0.00000000000000E+00   0.00000000000000E+00   0.00000000000000E+00  -1.12323041156411E-04
     -7.19185308046559E-26  -1.12323041156411E-04   7.32217953305847E-16   1.35000000000000E+00   1.35000000000000E+00
      0.00000000000000E+00   0.00000000000000E+00   0.00000000000000E+00   0.00000000000000E+00   0.00000000000000E+00
      3.57650831004805E-15   0.00000000000000E+00   0.00000000000000E+00   0.00000000000000E+00   0.00000000000000E+00
     -5.45735672462936E-18   7.19185307410820E-26  -5.45735665271083E-18  -5.96187654352154E-15   9.90000000000000E-01
      9.90000000000000E-01   0.00000000000000E+00   0.00000000000000E+00   1.12323041156416E-04   6.35740256228091E-35
      1.12323041156416E-04   1.65315028016765E-15
      6.00000000000000E-01
      0.00000000000000E+00   0.00000000000000E+00   0.00000000000000E+00   0.00000000000000E+00  -1.12749944931583E-04
     -7.86722923203959E-26  -1.12749944931583E-04   7.32223421827473E-16   1.35000000000000E+00   1.35000000000000E+00
      0.00000000000000E+00   0.00000000000000E+00   0.00000000000000E+00   0.00000000000000E+00   0.00000000000000E+00
      3.51007665491314E-15   0.00000000000000E+00   0.00000000000000E+00   0.00000000000000E+00   0.00000000000000E+00
     -7.78729454302231E-18   7.86722923125162E-26  -7.78729446435002E-18  -5.99866981378624E-15   1.08000000000000E+00
      1.08000000000000E+00   0.00000000000000E+00   0.00000000000000E+00   1.12749944931591E-04   7.87964119292335E-36
      1.12749944931591E-04   1.75636973704562E-15
      6.50000000000000E-01
      0.00000000000000E+00   0.00000000000000E+00   0.00000000000000E+00   0.00000000000000E+00  -1.13142156812763E-04
     -7.75442878400355E-26  -1.13142156812763E-04   7.32228433766762E-16   1.35000000000000E+00   1.35000000000000E+00
      0.00000000000000E+00   0.00000000000000E+00   0.00000000000000E+00   0.00000000000000E+00   0.00000000000000E+00
      3.44700113036088E-15   0.00000000000000E+00   0.00000000000000E+00   0.00000000000000E+00   0.00000000000000E+00
      2.34580776519197E-15   7.75442878384955E-26   2.34580776526951E-15  -6.03965646119454E-15   1.17000000000000E+00
      1.17000000000000E+00   0.00000000000000E+00   0.00000000000000E+00   1.13142156810417E-04   1.54003893103436E-36
      1.13142156810417E-04   1.86042689706691E-15
      7.00000000000000E-01
      0.00000000000000E+00   0.00000000000000E+00   0.00000000000000E+00   0.00000000000000E+00  -1.13504582393698E-04
     -1.27220805514295E-25  -1.13504582393698E-04   7.32233054652091E-16   1.35000000000000E+00   1.35000000000000E+00
      0.00000000000000E+00   0.00000000000000E+00   0.00000000000000E+00   0.00000000000000E+00   0.00000000000000E+00
      3.38593420970592E-15   0.00000000000000E+00   0.00000000000000E+00   0.00000000000000E+00   0.00000000000000E+00
      1.10207008375558E-14   1.27220805514105E-25   1.10207008376830E-14  -6.08166287887266E-15   1.26000000000000E+00
      1.26000000000000E+00   0.00000000000000E+00   0.00000000000000E+00   1.13504582382677E-04   1.89443975032195E-37
      1.13504582382677E-04   1.96349561451466E-15
      7.50000000000000E-01
      0.00000000000000E+00   0.00000000000000E+00   0.00000000000000E+00   0.00000000000000E+00  -1.13838228208373E-04
     -7.85065446992869E-26  -1.13838228208373E-04   7.32237299697629E-16   1.35000000000000E+00   1.35000000000000E+00
      0.00000000000000E+00   0.00000000000000E+00   0.00000000000000E+00   0.00000000000000E+00   0.00000000000000E+00
      3.32661984631208E-15   0.00000000000000E+00   0.00000000000000E+00   0.00000000000000E+00   0.00000000000000E+00
      6.09839993433107E-18   7.85065446992710E-26   6.09840001283761E-18  -6.12387628843859E-15   1.35000000000000E+00
      1.35000000000000E+00   0.00000000000000E+00   0.00000000000000E+00   1.13838228208367E-04   1.59195768561441E-38
      1.13838228208367E-04   2.06501914242888E-15
      8.00000000000000E-01
      0.00000000000000E+00   0.00000000000000E+00   0.00000000000000E+00   0.00000000000000E+00  -1.14149626352074E-04
     -8.11512595793564E-26  -1.14149626352074E-04   7.32241253958775E-16   1.35000000000000E+00   1.35000000000000E+00
      0.00000000000000E+00   0.00000000000000E+00   0.00000000000000E+00   0.00000000000000E+00   0.00000000000000E+00
      3.26877645322833E-15   0.00000000000000E+00   0.00000000000000E+00   0.00000000000000E+00   0.00000000000000E+00
      3.89222082956892E-17   8.11512595793536E-26   3.89222083768404E-17  -6.16588547654691E-15   1.44000000000000E+00
      1.44000000000000E+00   0.00000000000000E+00   0.00000000000000E+00   1.14149626352035E-04   2.67921795393511E-39
      1.14149626352035E-04   2.16486776935981E-15
      8.50000000000000E-01
      0.00000000000000E+00   0.00000000000000E+00   0.00000000000000E+00   0.00000000000000E+00  -1.14442737313723E-04
     -8.70284484612133E-26  -1.14442737313723E-04   7.32244969165153E-16   1.35000000000000E+00   1.35000000000000E+00
      0.00000000000000E+00   0.00000000000000E+00   0.00000000000000E+00   0.00000000000000E+00   0.00000000000000E+00
      3.21230691706200E-15   0.00000000000000E+00   0.00000000000000E+00   0.00000000000000E+00   0.00000000000000E+00
      2.38865807976113E-17   8.70284484612126E-26   2.38865808846398E-17  -6.20760973063097E-15   1.53000000000000E+00
      1.53000000000000E+00   0.00000000000000E+00   0.00000000000000E+00   1.14442737313700E-04   6.63594956359212E-40
      1.14442737313700E-04   2.26305784440382E-15
      9.00000000000000E-01
      0.00000000000000E+00   0.00000000000000E+00   0.00000000000000E+00   0.00000000000000E+00  -1.14721443813438E-04
     -7.83876167834672E-26  -1.14721443813438E-04   7.32248495625585E-16   1.35000000000000E+00   1.35000000000000E+00
      0.00000000000000E+00   0.00000000000000E+00   0.00000000000000E+00   0.00000000000000E+00   0.00000000000000E+00
      3.15699787460866E-15   0.00000000000000E+00   0.00000000000000E+00   0.00000000000000E+00   0.00000000000000E+00
      5.36718324736258E-18   7.83876167834671E-26   5.36718332575020E-18  -6.24900969674381E-15   1.62000000000000E+00
      1.62000000000000E+00   0.00000000000000E+00   0.00000000000000E+00   1.14721443813433E-04   4.96757695841224E-41
      1.14721443813433E-04   2.35976332650957E-15
      9.50000000000000E-01
      0.00000000000000E+00   0.00000000000000E+00   0.00000000000000E+00   0.00000000000000E+00  -1.14988497305880E-04
     -7.77495808652470E-26  -1.14988497305880E-04   7.32251868983692E-16   1.35000000000000E+00   1.35000000000000E+00
      0.00000000000000E+00   0.00000000000000E+00   0.00000000000000E+00   0.00000000000000E+00   0.00000000000000E+00
      3.10265313346873E-15   0.00000000000000E+00   0.00000000000000E+00   0.00000000000000E+00   0.00000000000000E+00
      4.77225808673472E-19   7.77495808652472E-26   4.77225886423053E-19  -6.29005865771372E-15   1.71000000000000E+00
      1.71000000000000E+00   0.00000000000000E+00   0.00000000000000E+00   1.14988497305880E-04   6.43054339886958E-42
      1.14988497305880E-04   2.45515365526130E-15
      1.00000000000000E+00
      0.00000000000000E+00   0.00000000000000E+00   0.00000000000000E+00   0.00000000000000E+00  -1.15245142833847E-04
     -6.50515451011469E-26  -1.15245142833847E-04   7.32255105637884E-16   1.35000000000000E+00   1.35000000000000E+00
      0.00000000000000E+00   0.00000000000000E+00   0.00000000000000E+00   0.00000000000000E+00   0.00000000000000E+00
      3.04926183791511E-15   0.00000000000000E+00   0.00000000000000E+00   0.00000000000000E+00   0.00000000000000E+00
      1.03646004195933E-17   6.50515451011469E-26   1.03646004846449E-17  -6.33073259422389E-15   1.80000000000000E+00
      1.80000000000000E+00   0.00000000000000E+00   0.00000000000000E+00   1.15245142833836E-04   1.42403422240446E-42
      1.15245142833836E-04   2.54921565067090E-15
}
