DF-ISE text

Info {
  version   = 1.0
  type      = xyplot
  datasets  = [
    "time"
    "source OuterVoltage" "source InnerVoltage" "source QuasiFermiPotential" "source DisplacementCurrent" "source eCurrent"
    "source hCurrent" "source TotalCurrent" "source Charge" "gate OuterVoltage" "gate InnerVoltage"
    "gate QuasiFermiPotential" "gate DisplacementCurrent" "gate eCurrent" "gate hCurrent" "gate TotalCurrent"
    "gate Charge" "substrate OuterVoltage" "substrate InnerVoltage" "substrate QuasiFermiPotential" "substrate DisplacementCurrent"
    "substrate eCurrent" "substrate hCurrent" "substrate TotalCurrent" "substrate Charge" "drain OuterVoltage"
    "drain InnerVoltage" "drain QuasiFermiPotential" "drain DisplacementCurrent" "drain eCurrent" "drain hCurrent"
    "drain TotalCurrent" "drain Charge" ]
  functions = [
    Time
    OuterVoltage InnerVoltage QuasiFermiPotential DisplacementCurrent eCurrent
    hCurrent TotalCurrent Charge OuterVoltage InnerVoltage
    QuasiFermiPotential DisplacementCurrent eCurrent hCurrent TotalCurrent
    Charge OuterVoltage InnerVoltage QuasiFermiPotential DisplacementCurrent
    eCurrent hCurrent TotalCurrent Charge OuterVoltage
    InnerVoltage QuasiFermiPotential DisplacementCurrent eCurrent hCurrent
    TotalCurrent Charge ]
}

Data {
      5.00000000000000E-02
      0.00000000000000E+00   0.00000000000000E+00   0.00000000000000E+00   0.00000000000000E+00  -1.42492322538442E-04
     -2.80621208323837E-42  -1.42492322538442E-04   1.58465759204759E-15   1.35000000000000E+00   1.35000000000000E+00
      0.00000000000000E+00   0.00000000000000E+00   0.00000000000000E+00   0.00000000000000E+00   0.00000000000000E+00
      1.98832276474547E-15  -1.80000000000000E+00  -1.80000000000000E+00   0.00000000000000E+00   0.00000000000000E+00
      2.51250763426198E-16   2.54911674306700E-42   2.51250763426198E-16  -5.22431913268466E-15   9.00000000000000E-02
      9.00000000000000E-02   0.00000000000000E+00   0.00000000000000E+00   1.42492322538190E-04   2.57095340171370E-43
      1.42492322538190E-04   1.65133877589160E-15
      1.00000000000000E-01
      0.00000000000000E+00   0.00000000000000E+00   0.00000000000000E+00   0.00000000000000E+00  -2.55608746702198E-04
     -1.91688861302802E-42  -2.55608746702198E-04   1.58138619888877E-15   1.35000000000000E+00   1.35000000000000E+00
      0.00000000000000E+00   0.00000000000000E+00   0.00000000000000E+00   0.00000000000000E+00   0.00000000000000E+00
      1.88072421830531E-15  -1.80000000000000E+00  -1.80000000000000E+00   0.00000000000000E+00   0.00000000000000E+00
      1.14524488490341E-17   1.93647645234755E-42   1.14524488490341E-17  -5.17933467977924E-15   1.80000000000000E-01
      1.80000000000000E-01   0.00000000000000E+00   0.00000000000000E+00   2.55608746702186E-04  -1.95878393195292E-44
      2.55608746702186E-04   1.71722426258515E-15
      1.50000000000000E-01
      0.00000000000000E+00   0.00000000000000E+00   0.00000000000000E+00   0.00000000000000E+00  -3.40569161436715E-04
     -9.83517618487603E-43  -3.40569161436715E-04   1.57696548962800E-15   1.35000000000000E+00   1.35000000000000E+00
      0.00000000000000E+00   0.00000000000000E+00   0.00000000000000E+00   0.00000000000000E+00   0.00000000000000E+00
      1.77566968888761E-15  -1.80000000000000E+00  -1.80000000000000E+00   0.00000000000000E+00   0.00000000000000E+00
      5.32219727493336E-18   9.78256584860419E-43   5.32219727493336E-18  -5.13703324190725E-15   2.70000000000000E-01
      2.70000000000000E-01   0.00000000000000E+00   0.00000000000000E+00   3.40569161436710E-04   5.26103362718427E-45
      3.40569161436710E-04   1.78439806339164E-15
      2.00000000000000E-01
      0.00000000000000E+00   0.00000000000000E+00   0.00000000000000E+00   0.00000000000000E+00  -4.00811831854103E-04
     -5.85906176848573E-43  -4.00811831854103E-04   1.57166702863884E-15   1.35000000000000E+00   1.35000000000000E+00
      0.00000000000000E+00   0.00000000000000E+00   0.00000000000000E+00   0.00000000000000E+00   0.00000000000000E+00
      1.67415687497241E-15  -1.80000000000000E+00  -1.80000000000000E+00   0.00000000000000E+00   0.00000000000000E+00
     -4.82716840939299E-18   5.85036696065518E-43  -4.82716840939299E-18  -5.09872830737006E-15   3.60000000000000E-01
      3.60000000000000E-01   0.00000000000000E+00   0.00000000000000E+00   4.00811831854107E-04   8.69480783055508E-46
      4.00811831854107E-04   1.85290440375881E-15
      2.50000000000000E-01
      0.00000000000000E+00   0.00000000000000E+00   0.00000000000000E+00   0.00000000000000E+00  -4.41489998586036E-04
     -1.22791377330667E-42  -4.41489998586036E-04   1.56592294682784E-15   1.35000000000000E+00   1.35000000000000E+00
      0.00000000000000E+00   0.00000000000000E+00   0.00000000000000E+00   0.00000000000000E+00   0.00000000000000E+00
      1.57729832919274E-15  -1.80000000000000E+00  -1.80000000000000E+00   0.00000000000000E+00   0.00000000000000E+00
     -8.33641949201364E-19   1.22788870664069E-42  -8.33641949201364E-19  -5.06581470516796E-15   4.50000000000000E-01
      4.50000000000000E-01   0.00000000000000E+00   0.00000000000000E+00   4.41489998586037E-04   2.50666659772724E-47
      4.41489998586037E-04   1.92259342914737E-15
      3.00000000000000E-01
      0.00000000000000E+00   0.00000000000000E+00   0.00000000000000E+00   0.00000000000000E+00  -4.68674721390243E-04
     -1.23263385511028E-42  -4.68674721390243E-04   1.56016040265285E-15   1.35000000000000E+00   1.35000000000000E+00
      0.00000000000000E+00   0.00000000000000E+00   0.00000000000000E+00   0.00000000000000E+00   0.00000000000000E+00
      1.48588690998080E-15  -1.80000000000000E+00  -1.80000000000000E+00   0.00000000000000E+00   0.00000000000000E+00
     -5.38926880416499E-18   1.23261562351446E-42  -5.38926880416499E-18  -5.03912934898874E-15   5.40000000000000E-01
      5.40000000000000E-01   0.00000000000000E+00   0.00000000000000E+00   4.68674721390248E-04   1.82315958234763E-47
      4.68674721390248E-04   1.99308203635509E-15
      3.50000000000000E-01
      0.00000000000000E+00   0.00000000000000E+00   0.00000000000000E+00   0.00000000000000E+00  -4.87890027688819E-04
     -2.68908984264576E-42  -4.87890027688819E-04   1.55461484296915E-15   1.35000000000000E+00   1.35000000000000E+00
      0.00000000000000E+00   0.00000000000000E+00   0.00000000000000E+00   0.00000000000000E+00   0.00000000000000E+00
      1.39985778318749E-15  -1.80000000000000E+00  -1.80000000000000E+00   0.00000000000000E+00   0.00000000000000E+00
      1.29991854390893E-17   2.68908940971374E-42   1.29991854390893E-17  -5.01852468418328E-15   6.30000000000000E-01
      6.30000000000000E-01   0.00000000000000E+00   0.00000000000000E+00   4.87890027688806E-04   4.32932019674080E-49
      4.87890027688806E-04   2.06405205802664E-15
      4.00000000000000E-01
      0.00000000000000E+00   0.00000000000000E+00   0.00000000000000E+00   0.00000000000000E+00  -5.02802521824928E-04
     -2.65001128459325E-42  -5.02802521824928E-04   1.54933226969143E-15   1.35000000000000E+00   1.35000000000000E+00
      0.00000000000000E+00   0.00000000000000E+00   0.00000000000000E+00   0.00000000000000E+00   0.00000000000000E+00
      1.31868659065180E-15  -1.80000000000000E+00  -1.80000000000000E+00   0.00000000000000E+00   0.00000000000000E+00
      2.06759321855164E-18   2.65001090381777E-42   2.06759321855164E-18  -5.00362937257021E-15   7.20000000000000E-01
      7.20000000000000E-01   0.00000000000000E+00   0.00000000000000E+00   5.02802521824926E-04   3.80775472473888E-49
      5.02802521824926E-04   2.13561051222698E-15
      4.50000000000000E-01
      0.00000000000000E+00   0.00000000000000E+00   0.00000000000000E+00   0.00000000000000E+00  -5.15250479699444E-04
     -8.08573118246645E-43  -5.15250479699444E-04   1.54430343593238E-15   1.35000000000000E+00   1.35000000000000E+00
      0.00000000000000E+00   0.00000000000000E+00   0.00000000000000E+00   0.00000000000000E+00   0.00000000000000E+00
      1.24234800429168E-15  -1.80000000000000E+00  -1.80000000000000E+00   0.00000000000000E+00   0.00000000000000E+00
      1.08730313697600E-14   8.08573105042759E-43   1.08730313697600E-14  -4.99492281919476E-15   8.10000000000000E-01
      8.10000000000000E-01   0.00000000000000E+00   0.00000000000000E+00   5.15250479688571E-04   1.32038849792155E-50
      5.15250479688571E-04   2.20827137897070E-15
      5.00000000000000E-01
      0.00000000000000E+00   0.00000000000000E+00   0.00000000000000E+00   0.00000000000000E+00  -5.26112160757035E-04
     -1.17023815755790E-42  -5.26112160757035E-04   1.53950932381288E-15   1.35000000000000E+00   1.35000000000000E+00
      0.00000000000000E+00   0.00000000000000E+00   0.00000000000000E+00   0.00000000000000E+00   0.00000000000000E+00
      1.17123063309642E-15  -1.80000000000000E+00  -1.80000000000000E+00   0.00000000000000E+00   0.00000000000000E+00
     -6.01680768871922E-18   1.17023815208309E-42  -6.01680768871922E-18  -4.99373334615569E-15   9.00000000000000E-01
      9.00000000000000E-01   0.00000000000000E+00   0.00000000000000E+00   5.26112160757041E-04   5.47480534336185E-51
      5.26112160757041E-04   2.28299338924640E-15
      5.50000000000000E-01
      0.00000000000000E+00   0.00000000000000E+00   0.00000000000000E+00   0.00000000000000E+00  -5.35823370781449E-04
     -1.53762995963705E-42  -5.35823370781449E-04   1.53492556168589E-15   1.35000000000000E+00   1.35000000000000E+00
      0.00000000000000E+00   0.00000000000000E+00   0.00000000000000E+00   0.00000000000000E+00   0.00000000000000E+00
      1.10594894565643E-15  -1.80000000000000E+00  -1.80000000000000E+00   0.00000000000000E+00   0.00000000000000E+00
      1.01051874916367E-12   1.53762995911192E-42   1.01051874916367E-12  -5.00197809961139E-15   9.90000000000000E-01
      9.90000000000000E-01   0.00000000000000E+00   0.00000000000000E+00   5.35823369770931E-04   5.25135532463217E-52
      5.35823369770931E-04   2.36110359226908E-15
      6.00000000000000E-01
      0.00000000000000E+00   0.00000000000000E+00   0.00000000000000E+00   0.00000000000000E+00  -5.44777024765375E-04
     -9.88832460820728E-43  -5.44777024765375E-04   1.53050358904112E-15   1.35000000000000E+00   1.35000000000000E+00
      0.00000000000000E+00   0.00000000000000E+00   0.00000000000000E+00   0.00000000000000E+00   0.00000000000000E+00
      1.04617307917082E-15  -1.80000000000000E+00  -1.80000000000000E+00   0.00000000000000E+00   0.00000000000000E+00
      1.73050203310477E-12   9.88832460899054E-43   1.73050203310477E-12  -5.01972194750903E-15   1.08000000000000E+00
      1.08000000000000E+00   0.00000000000000E+00   0.00000000000000E+00   5.44777023034872E-04  -7.83258599260061E-53
      5.44777023034872E-04   2.44304527929710E-15
      6.50000000000000E-01
      0.00000000000000E+00   0.00000000000000E+00   0.00000000000000E+00   0.00000000000000E+00  -5.53361215156719E-04
     -1.30755360843520E-42  -5.53361215156719E-04   1.52618863810024E-15   1.35000000000000E+00   1.35000000000000E+00
      0.00000000000000E+00   0.00000000000000E+00   0.00000000000000E+00   0.00000000000000E+00   0.00000000000000E+00
      9.90086650876192E-16  -1.80000000000000E+00  -1.80000000000000E+00   0.00000000000000E+00   0.00000000000000E+00
      9.33561253231056E-15   1.30755360841037E-42   9.33561253231056E-15  -5.04340713849353E-15   1.17000000000000E+00
      1.17000000000000E+00   0.00000000000000E+00   0.00000000000000E+00   5.53361215147384E-04   2.48376636752618E-53
      5.53361215147384E-04   2.52713184951710E-15
      7.00000000000000E-01
      0.00000000000000E+00   0.00000000000000E+00   0.00000000000000E+00   0.00000000000000E+00  -5.61715096523179E-04
     -5.12003241179357E-43  -5.61715096523179E-04   1.52195602943670E-15   1.35000000000000E+00   1.35000000000000E+00
      0.00000000000000E+00   0.00000000000000E+00   0.00000000000000E+00   0.00000000000000E+00   0.00000000000000E+00
      9.36078701876293E-16  -1.80000000000000E+00  -1.80000000000000E+00   0.00000000000000E+00   0.00000000000000E+00
      8.37401582955716E-17   5.12003241178624E-43   8.37401582955716E-17  -5.06938937636899E-15   1.26000000000000E+00
      1.26000000000000E+00   0.00000000000000E+00   0.00000000000000E+00   5.61715096523095E-04   7.33191153191427E-55
      5.61715096523095E-04   2.61135464505600E-15
      7.50000000000000E-01
      0.00000000000000E+00   0.00000000000000E+00   0.00000000000000E+00   0.00000000000000E+00  -5.69888082136216E-04
     -8.13269000575228E-43  -5.69888082136216E-04   1.51779824566915E-15   1.35000000000000E+00   1.35000000000000E+00
      0.00000000000000E+00   0.00000000000000E+00   0.00000000000000E+00   0.00000000000000E+00   0.00000000000000E+00
      8.83527123062883E-16  -1.80000000000000E+00  -1.80000000000000E+00   0.00000000000000E+00   0.00000000000000E+00
      3.51283712691301E-16   8.13269000574849E-43   3.51283712691301E-16  -5.09600201252952E-15   1.35000000000000E+00
      1.35000000000000E+00   0.00000000000000E+00   0.00000000000000E+00   5.69888082135865E-04   3.78438650388749E-55
      5.69888082135865E-04   2.69467664379749E-15
      8.00000000000000E-01
      0.00000000000000E+00   0.00000000000000E+00   0.00000000000000E+00   0.00000000000000E+00  -5.77881868298126E-04
     -2.42130005766076E-42  -5.77881868298126E-04   1.51371534911376E-15   1.35000000000000E+00   1.35000000000000E+00
      0.00000000000000E+00   0.00000000000000E+00   0.00000000000000E+00   0.00000000000000E+00   0.00000000000000E+00
      8.32344571712216E-16  -1.80000000000000E+00  -1.80000000000000E+00   0.00000000000000E+00   0.00000000000000E+00
      5.95942466828428E-16   2.42130005766073E-42   5.95942466828428E-16  -5.12276784795471E-15   1.44000000000000E+00
      1.44000000000000E+00   0.00000000000000E+00   0.00000000000000E+00   5.77881868297530E-04   2.99377091553828E-56
      5.77881868297530E-04   2.77670792712874E-15
      8.50000000000000E-01
      0.00000000000000E+00   0.00000000000000E+00   0.00000000000000E+00   0.00000000000000E+00  -5.85696871352840E-04
     -1.57151296745958E-42  -5.85696871352840E-04   1.50971103850306E-15   1.35000000000000E+00   1.35000000000000E+00
      0.00000000000000E+00   0.00000000000000E+00   0.00000000000000E+00   0.00000000000000E+00   0.00000000000000E+00
      7.82537354437925E-16  -1.80000000000000E+00  -1.80000000000000E+00   0.00000000000000E+00   0.00000000000000E+00
      3.87876340959111E-17   1.57151296745958E-42   3.87876340959111E-17  -5.14955341584410E-15   1.53000000000000E+00
      1.53000000000000E+00   0.00000000000000E+00   0.00000000000000E+00   5.85696871352800E-04   6.68636595301232E-57
      5.85696871352800E-04   2.85730502290311E-15
      9.00000000000000E-01
      0.00000000000000E+00   0.00000000000000E+00   0.00000000000000E+00   0.00000000000000E+00  -5.93327702177727E-04
     -1.92074135443473E-42  -5.93327702177727E-04   1.50579068845345E-15   1.35000000000000E+00   1.35000000000000E+00
      0.00000000000000E+00   0.00000000000000E+00   0.00000000000000E+00   0.00000000000000E+00   0.00000000000000E+00
      7.34045267504622E-16  -1.80000000000000E+00  -1.80000000000000E+00   0.00000000000000E+00   0.00000000000000E+00
      4.89300154081964E-18   1.92074135443472E-42   4.89300154081964E-18  -5.17630384306972E-15   1.62000000000000E+00
      1.62000000000000E+00   0.00000000000000E+00   0.00000000000000E+00   5.93327702177721E-04   4.54821448628036E-58
      5.93327702177721E-04   2.93646788711165E-15
      9.50000000000000E-01
      0.00000000000000E+00   0.00000000000000E+00   0.00000000000000E+00   0.00000000000000E+00  -6.00754324568371E-04
     -2.05135184867344E-42  -6.00754324568371E-04   1.50195880803042E-15   1.35000000000000E+00   1.35000000000000E+00
      0.00000000000000E+00   0.00000000000000E+00   0.00000000000000E+00   0.00000000000000E+00   0.00000000000000E+00
      6.86756508894290E-16  -1.80000000000000E+00  -1.80000000000000E+00   0.00000000000000E+00   0.00000000000000E+00
     -2.18203281661153E-18   2.05135184867344E-42  -2.18203281661153E-18  -5.20301665572912E-15   1.71000000000000E+00
      1.71000000000000E+00   0.00000000000000E+00   0.00000000000000E+00   6.00754324568373E-04   8.86353927855604E-59
      6.00754324568373E-04   3.01430133880441E-15
      1.00000000000000E+00
      0.00000000000000E+00   0.00000000000000E+00   0.00000000000000E+00   0.00000000000000E+00  -6.07960403605321E-04
     -1.95840614685395E-42  -6.07960403605321E-04   1.49821779378464E-15   1.35000000000000E+00   1.35000000000000E+00
      0.00000000000000E+00   0.00000000000000E+00   0.00000000000000E+00   0.00000000000000E+00   0.00000000000000E+00
      6.40572771871331E-16  -1.80000000000000E+00  -1.80000000000000E+00   0.00000000000000E+00   0.00000000000000E+00
     -2.39355545584995E-18   1.95840614685395E-42  -2.39355545584995E-18  -5.22971877800954E-15   1.80000000000000E+00
      1.80000000000000E+00   0.00000000000000E+00   0.00000000000000E+00   6.07960403605323E-04   1.30603799659190E-59
      6.07960403605323E-04   3.09092821235358E-15
}
