DF-ISE text

Info {
  version   = 1.0
  type      = xyplot
  datasets  = [
    "time"
    "source OuterVoltage" "source InnerVoltage" "source QuasiFermiPotential" "source DisplacementCurrent" "source eCurrent"
    "source hCurrent" "source TotalCurrent" "source Charge" "gate OuterVoltage" "gate InnerVoltage"
    "gate QuasiFermiPotential" "gate DisplacementCurrent" "gate eCurrent" "gate hCurrent" "gate TotalCurrent"
    "gate Charge" "substrate OuterVoltage" "substrate InnerVoltage" "substrate QuasiFermiPotential" "substrate DisplacementCurrent"
    "substrate eCurrent" "substrate hCurrent" "substrate TotalCurrent" "substrate Charge" "drain OuterVoltage"
    "drain InnerVoltage" "drain QuasiFermiPotential" "drain DisplacementCurrent" "drain eCurrent" "drain hCurrent"
    "drain TotalCurrent" "drain Charge" ]
  functions = [
    Time
    OuterVoltage InnerVoltage QuasiFermiPotential DisplacementCurrent eCurrent
    hCurrent TotalCurrent Charge OuterVoltage InnerVoltage
    QuasiFermiPotential DisplacementCurrent eCurrent hCurrent TotalCurrent
    Charge OuterVoltage InnerVoltage QuasiFermiPotential DisplacementCurrent
    eCurrent hCurrent TotalCurrent Charge OuterVoltage
    InnerVoltage QuasiFermiPotential DisplacementCurrent eCurrent hCurrent
    TotalCurrent Charge ]
}

Data {
      5.00000000000000E-02
      0.00000000000000E+00   0.00000000000000E+00   0.00000000000000E+00   0.00000000000000E+00  -6.10837913495222E-05
     -8.47254050138914E-26  -6.10837913495222E-05   6.44781818050549E-16   1.80000000000000E+00   1.80000000000000E+00
      0.00000000000000E+00   0.00000000000000E+00   0.00000000000000E+00   0.00000000000000E+00   0.00000000000000E+00
      7.85055857720266E-15   0.00000000000000E+00   0.00000000000000E+00   0.00000000000000E+00   0.00000000000000E+00
      4.36189566838737E-18   9.80583117146532E-26   4.36189576644568E-18  -9.21904312272389E-15   9.00000000000000E-02
      9.00000000000000E-02   0.00000000000000E+00   0.00000000000000E+00   6.10837913495179E-05  -1.33329067007618E-26
      6.10837913495179E-05   7.23702727470676E-16
      1.00000000000000E-01
      0.00000000000000E+00   0.00000000000000E+00   0.00000000000000E+00   0.00000000000000E+00  -1.12815938652150E-04
     -7.07892437058124E-26  -1.12815938652150E-04   6.45767383884496E-16   1.80000000000000E+00   1.80000000000000E+00
      0.00000000000000E+00   0.00000000000000E+00   0.00000000000000E+00   0.00000000000000E+00   0.00000000000000E+00
      7.58160037490919E-15   0.00000000000000E+00   0.00000000000000E+00   0.00000000000000E+00   0.00000000000000E+00
     -5.26139357302330E-18   7.18573789527634E-26  -5.26139350116593E-18  -9.02879959426897E-15   1.80000000000000E-01
      1.80000000000000E-01   0.00000000000000E+00   0.00000000000000E+00   1.12815938652155E-04  -1.06813524695091E-27
      1.12815938652155E-04   8.01431835475289E-16
      1.50000000000000E-01
      0.00000000000000E+00   0.00000000000000E+00   0.00000000000000E+00   0.00000000000000E+00  -1.55756504514330E-04
     -1.04694167329411E-25  -1.55756504514330E-04   6.46547838234007E-16   1.80000000000000E+00   1.80000000000000E+00
      0.00000000000000E+00   0.00000000000000E+00   0.00000000000000E+00   0.00000000000000E+00   0.00000000000000E+00
      7.32109485170808E-15   0.00000000000000E+00   0.00000000000000E+00   0.00000000000000E+00   0.00000000000000E+00
     -1.01627731080663E-17   1.04763091090037E-25  -1.01627730033032E-17  -8.84518620140206E-15   2.70000000000000E-01
      2.70000000000000E-01   0.00000000000000E+00   0.00000000000000E+00   1.55756504514340E-04  -6.89237606263116E-29
      1.55756504514340E-04   8.77543511459975E-16
      2.00000000000000E-01
      0.00000000000000E+00   0.00000000000000E+00   0.00000000000000E+00   0.00000000000000E+00  -1.90643438012875E-04
     -8.69805358060464E-26  -1.90643438012875E-04   6.47152173049901E-16   1.80000000000000E+00   1.80000000000000E+00
      0.00000000000000E+00   0.00000000000000E+00   0.00000000000000E+00   0.00000000000000E+00   0.00000000000000E+00
      7.07129401046227E-15   0.00000000000000E+00   0.00000000000000E+00   0.00000000000000E+00   0.00000000000000E+00
      4.99908665319443E-15   8.69624894612663E-26   4.99908665328139E-15  -8.67095190297967E-15   3.60000000000000E-01
      3.60000000000000E-01   0.00000000000000E+00   0.00000000000000E+00   1.90643438007876E-04   1.80463447800661E-29
      1.90643438007876E-04   9.52505719467502E-16
      2.50000000000000E-01
      0.00000000000000E+00   0.00000000000000E+00   0.00000000000000E+00   0.00000000000000E+00  -2.18250723165866E-04
     -5.96759754017036E-26  -2.18250723165866E-04   6.47608597904636E-16   1.80000000000000E+00   1.80000000000000E+00
      0.00000000000000E+00   0.00000000000000E+00   0.00000000000000E+00   0.00000000000000E+00   0.00000000000000E+00
      6.83488564163863E-15   0.00000000000000E+00   0.00000000000000E+00   0.00000000000000E+00   0.00000000000000E+00
      2.23587663814562E-14   5.96726875301915E-26   2.23587663815159E-14  -8.50913656178962E-15   4.50000000000000E-01
      4.50000000000000E-01   0.00000000000000E+00   0.00000000000000E+00   2.18250723143507E-04   3.28787151216510E-30
      2.18250723143507E-04   1.02664232224635E-15
      3.00000000000000E-01
      0.00000000000000E+00   0.00000000000000E+00   0.00000000000000E+00   0.00000000000000E+00  -2.39346485666858E-04
     -4.43713854006081E-26  -2.39346485666858E-04   6.47942741134823E-16   1.80000000000000E+00   1.80000000000000E+00
      0.00000000000000E+00   0.00000000000000E+00   0.00000000000000E+00   0.00000000000000E+00   0.00000000000000E+00
      6.61499078165605E-15   0.00000000000000E+00   0.00000000000000E+00   0.00000000000000E+00   0.00000000000000E+00
      7.64227339977460E-18   4.43710253029082E-26   7.64227344414563E-18  -8.36316971343743E-15   5.40000000000000E-01
      5.40000000000000E-01   0.00000000000000E+00   0.00000000000000E+00   2.39346485666850E-04   3.60097699865644E-31
      2.39346485666850E-04   1.10023619064657E-15
      3.50000000000000E-01
      0.00000000000000E+00   0.00000000000000E+00   0.00000000000000E+00   0.00000000000000E+00  -2.54687079049730E-04
     -9.71921109360870E-26  -2.54687079049730E-04   6.48176972554509E-16   1.80000000000000E+00   1.80000000000000E+00
      0.00000000000000E+00   0.00000000000000E+00   0.00000000000000E+00   0.00000000000000E+00   0.00000000000000E+00
      6.41508726129697E-15   0.00000000000000E+00   0.00000000000000E+00   0.00000000000000E+00   0.00000000000000E+00
      2.51200913543576E-16   9.71919795617995E-26   2.51200913640768E-16  -8.23686167919423E-15   6.30000000000000E-01
      6.30000000000000E-01   0.00000000000000E+00   0.00000000000000E+00   2.54687079049479E-04   1.31374287602284E-31
      2.54687079049479E-04   1.17359744534276E-15
      4.00000000000000E-01
      0.00000000000000E+00   0.00000000000000E+00   0.00000000000000E+00   0.00000000000000E+00  -2.65060257648465E-04
     -6.37683400721355E-26  -2.65060257648465E-04   6.48330865110286E-16   1.80000000000000E+00   1.80000000000000E+00
      0.00000000000000E+00   0.00000000000000E+00   0.00000000000000E+00   0.00000000000000E+00   0.00000000000000E+00
      6.23857697884672E-15   0.00000000000000E+00   0.00000000000000E+00   0.00000000000000E+00   0.00000000000000E+00
      4.44810661055350E-15   6.37683266400211E-26   4.44810661061727E-15  -8.13401431577848E-15   7.20000000000000E-01
      7.20000000000000E-01   0.00000000000000E+00   0.00000000000000E+00   2.65060257644016E-04   1.34321145322190E-32
      2.65060257644016E-04   1.24710647182147E-15
      4.50000000000000E-01
      0.00000000000000E+00   0.00000000000000E+00   0.00000000000000E+00   0.00000000000000E+00  -2.71529365163337E-04
     -9.82074870660691E-26  -2.71529365163337E-04   6.48424904875638E-16   1.80000000000000E+00   1.80000000000000E+00
      0.00000000000000E+00   0.00000000000000E+00   0.00000000000000E+00   0.00000000000000E+00   0.00000000000000E+00
      6.08630181129061E-15   0.00000000000000E+00   0.00000000000000E+00   0.00000000000000E+00   0.00000000000000E+00
     -1.19522335635494E-16   9.82074847901200E-26  -1.19522335537287E-16  -8.05589519586239E-15   8.10000000000000E-01
      8.10000000000000E-01   0.00000000000000E+00   0.00000000000000E+00   2.71529365163456E-04   2.27594896577579E-33
      2.71529365163456E-04   1.32116847969612E-15
      5.00000000000000E-01
      0.00000000000000E+00   0.00000000000000E+00   0.00000000000000E+00   0.00000000000000E+00  -2.75604218063885E-04
     -7.23412883213469E-26  -2.75604218063885E-04   6.48483350062867E-16   1.80000000000000E+00   1.80000000000000E+00
      0.00000000000000E+00   0.00000000000000E+00   0.00000000000000E+00   0.00000000000000E+00   0.00000000000000E+00
      5.95326674435960E-15   0.00000000000000E+00   0.00000000000000E+00   0.00000000000000E+00   0.00000000000000E+00
     -1.79856787140164E-15   7.23412880819538E-26  -1.79856787132930E-15  -7.99780432233608E-15   9.00000000000000E-01
      9.00000000000000E-01   0.00000000000000E+00   0.00000000000000E+00   2.75604218065684E-04   2.39393040298444E-34
      2.75604218065684E-04   1.39605422791362E-15
      5.50000000000000E-01
      0.00000000000000E+00   0.00000000000000E+00   0.00000000000000E+00   0.00000000000000E+00  -2.78393004532405E-04
     -7.49823082692162E-26  -2.78393004532405E-04   6.48522989037565E-16   1.80000000000000E+00   1.80000000000000E+00
      0.00000000000000E+00   0.00000000000000E+00   0.00000000000000E+00   0.00000000000000E+00   0.00000000000000E+00
      5.83439049379743E-15   0.00000000000000E+00   0.00000000000000E+00   0.00000000000000E+00   0.00000000000000E+00
      9.74337295139361E-18   7.49823082278942E-26   9.74337302637591E-18  -7.95490403630715E-15   9.90000000000000E-01
      9.90000000000000E-01   0.00000000000000E+00   0.00000000000000E+00   2.78393004532395E-04   4.13220607200027E-35
      2.78393004532395E-04   1.47199055347217E-15
      6.00000000000000E-01
      0.00000000000000E+00   0.00000000000000E+00   0.00000000000000E+00   0.00000000000000E+00  -2.80416039520973E-04
     -1.03784469594194E-25  -2.80416039520973E-04   6.48551557544202E-16   1.80000000000000E+00   1.80000000000000E+00
      0.00000000000000E+00   0.00000000000000E+00   0.00000000000000E+00   0.00000000000000E+00   0.00000000000000E+00
      5.72711061768414E-15   0.00000000000000E+00   0.00000000000000E+00   0.00000000000000E+00   0.00000000000000E+00
     -3.48414063725740E-18   1.03784469584409E-25  -3.48414053347293E-18  -7.92484113082236E-15   1.08000000000000E+00
      1.08000000000000E+00   0.00000000000000E+00   0.00000000000000E+00   2.80416039520977E-04   9.78512358974007E-36
      2.80416039520977E-04   1.54917895559402E-15
      6.50000000000000E-01
      0.00000000000000E+00   0.00000000000000E+00   0.00000000000000E+00   0.00000000000000E+00  -2.81985393667555E-04
     -9.11665733924101E-26  -2.81985393667555E-04   6.48573610111789E-16   1.80000000000000E+00   1.80000000000000E+00
      0.00000000000000E+00   0.00000000000000E+00   0.00000000000000E+00   0.00000000000000E+00   0.00000000000000E+00
      5.62919197143456E-15   0.00000000000000E+00   0.00000000000000E+00   0.00000000000000E+00   0.00000000000000E+00
     -8.18924216506905E-18   9.11665733913844E-26  -8.18924207390248E-18  -7.90565485338749E-15   1.17000000000000E+00
      1.17000000000000E+00   0.00000000000000E+00   0.00000000000000E+00   2.81985393667563E-04   1.02576057457695E-36
      2.81985393667563E-04   1.62788927184113E-15
      7.00000000000000E-01
      0.00000000000000E+00   0.00000000000000E+00   0.00000000000000E+00   0.00000000000000E+00  -2.83280326406007E-04
     -6.76976816122423E-26  -2.83280326406007E-04   6.48591733976400E-16   1.80000000000000E+00   1.80000000000000E+00
      0.00000000000000E+00   0.00000000000000E+00   0.00000000000000E+00   0.00000000000000E+00   0.00000000000000E+00
      5.53930969871579E-15   0.00000000000000E+00   0.00000000000000E+00   0.00000000000000E+00   0.00000000000000E+00
      3.03574191566930E-14   6.76976816121225E-26   3.03574191567607E-14  -7.89680623843829E-15   1.26000000000000E+00
      1.26000000000000E+00   0.00000000000000E+00   0.00000000000000E+00   2.83280326375650E-04   1.19778951293865E-37
      2.83280326375650E-04   1.70890480574609E-15
      7.50000000000000E-01
      0.00000000000000E+00   0.00000000000000E+00   0.00000000000000E+00   0.00000000000000E+00  -2.84398964234658E-04
     -1.09199424519299E-25  -2.84398964234658E-04   6.48607337228147E-16   1.80000000000000E+00   1.80000000000000E+00
      0.00000000000000E+00   0.00000000000000E+00   0.00000000000000E+00   0.00000000000000E+00   0.00000000000000E+00
      5.45711205429287E-15   0.00000000000000E+00   0.00000000000000E+00   0.00000000000000E+00   0.00000000000000E+00
     -1.11916797295636E-17   1.09199424519267E-25  -1.11916796203642E-17  -7.89959117296120E-15   1.35000000000000E+00
      1.35000000000000E+00   0.00000000000000E+00   0.00000000000000E+00   2.84398964234669E-04   3.19196338238727E-38
      2.84398964234669E-04   1.79387178144017E-15
      8.00000000000000E-01
      0.00000000000000E+00   0.00000000000000E+00   0.00000000000000E+00   0.00000000000000E+00  -2.85397548194511E-04
     -6.21107297571451E-26  -2.85397548194511E-04   6.48621224000330E-16   1.80000000000000E+00   1.80000000000000E+00
      0.00000000000000E+00   0.00000000000000E+00   0.00000000000000E+00   0.00000000000000E+00   0.00000000000000E+00
      5.38263189621622E-15   0.00000000000000E+00   0.00000000000000E+00   0.00000000000000E+00   0.00000000000000E+00
     -2.52604376780389E-18   6.21107297571425E-26  -2.52604370569316E-18  -7.91566903197942E-15   1.44000000000000E+00
      1.44000000000000E+00   0.00000000000000E+00   0.00000000000000E+00   2.85397548194514E-04   2.58881097055192E-39
      2.85397548194514E-04   1.88441591176286E-15
      8.50000000000000E-01
      0.00000000000000E+00   0.00000000000000E+00   0.00000000000000E+00   0.00000000000000E+00  -2.86303081427151E-04
     -1.02357926217257E-25  -2.86303081427151E-04   6.48633782380685E-16   1.80000000000000E+00   1.80000000000000E+00
      0.00000000000000E+00   0.00000000000000E+00   0.00000000000000E+00   0.00000000000000E+00   0.00000000000000E+00
      5.31469668261349E-15   0.00000000000000E+00   0.00000000000000E+00   0.00000000000000E+00   0.00000000000000E+00
      1.26102969268572E-12   1.02357926217256E-25   1.26102969268583E-12  -7.94302585317510E-15   1.53000000000000E+00
      1.53000000000000E+00   0.00000000000000E+00   0.00000000000000E+00   2.86303080166121E-04   7.80997474608891E-40
      2.86303080166121E-04   1.97969538818091E-15
      9.00000000000000E-01
      0.00000000000000E+00   0.00000000000000E+00   0.00000000000000E+00   0.00000000000000E+00  -2.87133225442083E-04
     -1.01527538461287E-25  -2.87133225442083E-04   6.48645266337418E-16   1.80000000000000E+00   1.80000000000000E+00
      0.00000000000000E+00   0.00000000000000E+00   0.00000000000000E+00   0.00000000000000E+00   0.00000000000000E+00
      5.25075749595888E-15   0.00000000000000E+00   0.00000000000000E+00   0.00000000000000E+00   0.00000000000000E+00
      5.04143953984720E-15   1.01527538461286E-25   5.04143953994872E-15  -7.97606640840973E-15   1.62000000000000E+00
      1.62000000000000E+00   0.00000000000000E+00   0.00000000000000E+00   2.87133225437041E-04   7.38733451684556E-41
      2.87133225437041E-04   2.07666364611340E-15
      9.50000000000000E-01
      0.00000000000000E+00   0.00000000000000E+00   0.00000000000000E+00   0.00000000000000E+00  -2.87906486153000E-04
     -7.03948306890721E-26  -2.87906486153000E-04   6.48655938414911E-16   1.80000000000000E+00   1.80000000000000E+00
      0.00000000000000E+00   0.00000000000000E+00   0.00000000000000E+00   0.00000000000000E+00   0.00000000000000E+00
      5.18891836746875E-15   0.00000000000000E+00   0.00000000000000E+00   0.00000000000000E+00   0.00000000000000E+00
      5.09170986637148E-17   7.03948306890721E-26   5.09170987341097E-17  -8.01091038952649E-15   1.71000000000000E+00
      1.71000000000000E+00   0.00000000000000E+00   0.00000000000000E+00   2.87906486152949E-04   6.88728914708724E-42
      2.87906486152949E-04   2.17333608364282E-15
      1.00000000000000E+00
      0.00000000000000E+00   0.00000000000000E+00   0.00000000000000E+00   0.00000000000000E+00  -2.88631103469397E-04
     -6.83932403510205E-26  -2.88631103469397E-04   6.48665917179043E-16   1.80000000000000E+00   1.80000000000000E+00
      0.00000000000000E+00   0.00000000000000E+00   0.00000000000000E+00   0.00000000000000E+00   0.00000000000000E+00
      5.12860925452807E-15   0.00000000000000E+00   0.00000000000000E+00   0.00000000000000E+00   0.00000000000000E+00
      1.96076181840722E-16   6.83932403510204E-26   1.96076181909115E-16  -8.04624029746975E-15   1.80000000000000E+00
      1.80000000000000E+00   0.00000000000000E+00   0.00000000000000E+00   2.88631103469201E-04   1.86498771128457E-42
      2.88631103469201E-04   2.26896512576263E-15
}
