DF-ISE text

Info {
  version   = 1.0
  type      = xyplot
  datasets  = [
    "time"
    "source OuterVoltage" "source InnerVoltage" "source QuasiFermiPotential" "source DisplacementCurrent" "source eCurrent"
    "source hCurrent" "source TotalCurrent" "source Charge" "gate OuterVoltage" "gate InnerVoltage"
    "gate QuasiFermiPotential" "gate DisplacementCurrent" "gate eCurrent" "gate hCurrent" "gate TotalCurrent"
    "gate Charge" "substrate OuterVoltage" "substrate InnerVoltage" "substrate QuasiFermiPotential" "substrate DisplacementCurrent"
    "substrate eCurrent" "substrate hCurrent" "substrate TotalCurrent" "substrate Charge" "drain OuterVoltage"
    "drain InnerVoltage" "drain QuasiFermiPotential" "drain DisplacementCurrent" "drain eCurrent" "drain hCurrent"
    "drain TotalCurrent" "drain Charge" ]
  functions = [
    Time
    OuterVoltage InnerVoltage QuasiFermiPotential DisplacementCurrent eCurrent
    hCurrent TotalCurrent Charge OuterVoltage InnerVoltage
    QuasiFermiPotential DisplacementCurrent eCurrent hCurrent TotalCurrent
    Charge OuterVoltage InnerVoltage QuasiFermiPotential DisplacementCurrent
    eCurrent hCurrent TotalCurrent Charge OuterVoltage
    InnerVoltage QuasiFermiPotential DisplacementCurrent eCurrent hCurrent
    TotalCurrent Charge ]
}

Data {
      5.00000000000000E-02
      0.00000000000000E+00   0.00000000000000E+00   0.00000000000000E+00   0.00000000000000E+00  -4.51292120001106E-08
     -2.36711659093953E-25  -4.51292120001106E-08   1.22467624379652E-15   0.00000000000000E+00   0.00000000000000E+00
      0.00000000000000E+00   0.00000000000000E+00   0.00000000000000E+00   0.00000000000000E+00   0.00000000000000E+00
     -6.80105031791077E-16   0.00000000000000E+00   0.00000000000000E+00   0.00000000000000E+00   0.00000000000000E+00
     -6.05813012264563E-19   2.59262470933012E-25  -6.05812753002092E-19  -1.89527989737814E-15   9.00000000000000E-02
      9.00000000000000E-02   0.00000000000000E+00   0.00000000000000E+00   4.51292120007164E-08  -2.25508118390581E-26
      4.51292120007164E-08   1.35070868537269E-15
      1.00000000000000E-01
      0.00000000000000E+00   0.00000000000000E+00   0.00000000000000E+00   0.00000000000000E+00  -1.10879152320994E-07
     -2.71099904929575E-25  -1.10879152320994E-07   1.22002769448175E-15   0.00000000000000E+00   0.00000000000000E+00
      0.00000000000000E+00   0.00000000000000E+00   0.00000000000000E+00   0.00000000000000E+00   0.00000000000000E+00
     -7.35274499795746E-16   0.00000000000000E+00   0.00000000000000E+00   0.00000000000000E+00   0.00000000000000E+00
     -2.17101776214255E-19   2.74068906536197E-25  -2.17101502145349E-19  -1.95214135725264E-15   1.80000000000000E-01
      1.80000000000000E-01   0.00000000000000E+00   0.00000000000000E+00   1.10879152321212E-07  -2.96900160662163E-27
      1.10879152321212E-07   1.46738816256664E-15
      1.50000000000000E-01
      0.00000000000000E+00   0.00000000000000E+00   0.00000000000000E+00   0.00000000000000E+00  -2.49193053903314E-07
     -2.94497951614675E-25  -2.49193053903314E-07   1.21543879252791E-15   0.00000000000000E+00   0.00000000000000E+00
      0.00000000000000E+00   0.00000000000000E+00   0.00000000000000E+00   0.00000000000000E+00   0.00000000000000E+00
     -7.88827707787612E-16   0.00000000000000E+00   0.00000000000000E+00   0.00000000000000E+00   0.00000000000000E+00
     -2.11495157588623E-19   2.94826941328284E-25  -2.11494862761682E-19  -2.00682374784932E-15   2.70000000000000E-01
      2.70000000000000E-01   0.00000000000000E+00   0.00000000000000E+00   2.49193053903525E-07  -3.28989713608752E-28
      2.49193053903525E-07   1.58021266310902E-15
      2.00000000000000E-01
      0.00000000000000E+00   0.00000000000000E+00   0.00000000000000E+00   0.00000000000000E+00  -5.16930136481250E-07
     -2.71454829268676E-25  -5.16930136481250E-07   1.21092454870697E-15   0.00000000000000E+00   0.00000000000000E+00
      0.00000000000000E+00   0.00000000000000E+00   0.00000000000000E+00   0.00000000000000E+00   0.00000000000000E+00
     -8.40786484018339E-16   0.00000000000000E+00   0.00000000000000E+00   0.00000000000000E+00   0.00000000000000E+00
     -2.90763159389538E-19   2.71481860613084E-25  -2.90762887907678E-19  -2.05981008998430E-15   3.60000000000000E-01
      3.60000000000000E-01   0.00000000000000E+00   0.00000000000000E+00   5.16930136481541E-07  -2.70313444076243E-29
      5.16930136481541E-07   1.68967202529567E-15
      2.50000000000000E-01
      0.00000000000000E+00   0.00000000000000E+00   0.00000000000000E+00   0.00000000000000E+00  -9.89676100020305E-07
     -2.99571264420602E-25  -9.89676100020305E-07   1.20650870048594E-15   0.00000000000000E+00   0.00000000000000E+00
      0.00000000000000E+00   0.00000000000000E+00   0.00000000000000E+00   0.00000000000000E+00   0.00000000000000E+00
     -8.91340690506216E-16   0.00000000000000E+00   0.00000000000000E+00   0.00000000000000E+00   0.00000000000000E+00
     -2.02466877256155E-20   2.99574105601624E-25  -2.02463881515099E-20  -2.11143825957102E-15   4.50000000000000E-01
      4.50000000000000E-01   0.00000000000000E+00   0.00000000000000E+00   9.89676100020326E-07  -2.84118102207578E-30
      9.89676100020326E-07   1.79627024959130E-15
      3.00000000000000E-01
      0.00000000000000E+00   0.00000000000000E+00   0.00000000000000E+00   0.00000000000000E+00  -1.75747323949347E-06
     -2.96245129569486E-25  -1.75747323949347E-06   1.20221389361039E-15   0.00000000000000E+00   0.00000000000000E+00
      0.00000000000000E+00   0.00000000000000E+00   0.00000000000000E+00   0.00000000000000E+00   0.00000000000000E+00
     -9.40800561070508E-16   0.00000000000000E+00   0.00000000000000E+00   0.00000000000000E+00   0.00000000000000E+00
     -2.20952300489679E-19   2.96245504073698E-25  -2.20952004244175E-19  -2.16195859034876E-15   5.40000000000000E-01
      5.40000000000000E-01   0.00000000000000E+00   0.00000000000000E+00   1.75747323949369E-06  -3.74504212255455E-31
      1.75747323949369E-06   1.90054525780888E-15
      3.50000000000000E-01
      0.00000000000000E+00   0.00000000000000E+00   0.00000000000000E+00   0.00000000000000E+00  -2.90446019866524E-06
     -2.60693153788173E-25  -2.90446019866524E-06   1.19807306337982E-15   0.00000000000000E+00   0.00000000000000E+00
      0.00000000000000E+00   0.00000000000000E+00   0.00000000000000E+00   0.00000000000000E+00   0.00000000000000E+00
     -9.89334940271530E-16   0.00000000000000E+00   0.00000000000000E+00   0.00000000000000E+00   0.00000000000000E+00
     -2.33762905002682E-19   2.60692944584336E-25  -2.33762644309738E-19  -2.21155003634429E-15   6.30000000000000E-01
      6.30000000000000E-01   0.00000000000000E+00   0.00000000000000E+00   2.90446019866548E-06   2.09203836804716E-31
      2.90446019866548E-06   2.00281191323600E-15
      4.00000000000000E-01
      0.00000000000000E+00   0.00000000000000E+00   0.00000000000000E+00   0.00000000000000E+00  -4.48376802491394E-06
     -2.94929586501658E-25  -4.48376802491394E-06   1.19412143929886E-15   0.00000000000000E+00   0.00000000000000E+00
      0.00000000000000E+00   0.00000000000000E+00   0.00000000000000E+00   0.00000000000000E+00   0.00000000000000E+00
     -1.03693038636601E-15   0.00000000000000E+00   0.00000000000000E+00   0.00000000000000E+00   0.00000000000000E+00
     -2.14564378784852E-19   2.94929572533770E-25  -2.14564083855279E-19  -2.26033005420169E-15   7.20000000000000E-01
      7.20000000000000E-01   0.00000000000000E+00   0.00000000000000E+00   4.48376802491415E-06   1.39678882313946E-32
      4.48376802491415E-06   2.10313900126884E-15
      4.50000000000000E-01
      0.00000000000000E+00   0.00000000000000E+00   0.00000000000000E+00   0.00000000000000E+00  -6.51564880077314E-06
     -2.75100029795784E-25  -6.51564880077314E-06   1.19036875241469E-15   0.00000000000000E+00   0.00000000000000E+00
      0.00000000000000E+00   0.00000000000000E+00   0.00000000000000E+00   0.00000000000000E+00   0.00000000000000E+00
     -1.08351653060562E-15   0.00000000000000E+00   0.00000000000000E+00   0.00000000000000E+00   0.00000000000000E+00
     -2.45025534860808E-19   2.75100036731756E-25  -2.45025259760771E-19  -2.30837933354693E-15   8.10000000000000E-01
      8.10000000000000E-01   0.00000000000000E+00   0.00000000000000E+00   6.51564880077339E-06  -6.93597181646660E-33
      6.51564880077339E-06   2.20152711173786E-15
      5.00000000000000E-01
      0.00000000000000E+00   0.00000000000000E+00   0.00000000000000E+00   0.00000000000000E+00  -9.00673166152330E-06
     -2.73987236528593E-25  -9.00673166152330E-06   1.18679251535420E-15   0.00000000000000E+00   0.00000000000000E+00
      0.00000000000000E+00   0.00000000000000E+00   0.00000000000000E+00   0.00000000000000E+00   0.00000000000000E+00
     -1.12901998133807E-15   0.00000000000000E+00   0.00000000000000E+00   0.00000000000000E+00   0.00000000000000E+00
     -1.81197318117673E-19   2.73987178921290E-25  -1.81197044130495E-19  -2.35576282437225E-15   9.00000000000000E-01
      9.00000000000000E-01   0.00000000000000E+00   0.00000000000000E+00   9.00673166152348E-06   5.76073028001925E-32
      9.00673166152348E-06   2.29799029035612E-15
      5.50000000000000E-01
      0.00000000000000E+00   0.00000000000000E+00   0.00000000000000E+00   0.00000000000000E+00  -1.19531750070208E-05
     -2.72317469513307E-25  -1.19531750070208E-05   1.18336672203688E-15   0.00000000000000E+00   0.00000000000000E+00
      0.00000000000000E+00   0.00000000000000E+00   0.00000000000000E+00   0.00000000000000E+00   0.00000000000000E+00
     -1.17332934574914E-15   0.00000000000000E+00   0.00000000000000E+00   0.00000000000000E+00   0.00000000000000E+00
     -2.80025635532126E-19   2.72317452206936E-25  -2.80025363214673E-19  -2.40252758138053E-15   9.90000000000000E-01
      9.90000000000000E-01   0.00000000000000E+00   0.00000000000000E+00   1.19531750070210E-05   1.73063703871964E-32
      1.19531750070210E-05   2.39249020509279E-15
      6.00000000000000E-01
      0.00000000000000E+00   0.00000000000000E+00   0.00000000000000E+00   0.00000000000000E+00  -1.53266458556911E-05
     -2.66307820197808E-25  -1.53266458556911E-05   1.18007868519174E-15   0.00000000000000E+00   0.00000000000000E+00
      0.00000000000000E+00   0.00000000000000E+00   0.00000000000000E+00   0.00000000000000E+00   0.00000000000000E+00
     -1.21631290208069E-15   0.00000000000000E+00   0.00000000000000E+00   0.00000000000000E+00   0.00000000000000E+00
     -3.12347360646449E-19   2.66307803003891E-25  -3.12347094338646E-19  -2.44869990889265E-15   1.08000000000000E+00
      1.08000000000000E+00   0.00000000000000E+00   0.00000000000000E+00   1.53266458556914E-05   1.71939167841171E-32
      1.53266458556914E-05   2.48493412578159E-15
      6.50000000000000E-01
      0.00000000000000E+00   0.00000000000000E+00   0.00000000000000E+00   0.00000000000000E+00  -1.90799772626522E-05
     -2.66937801979470E-25  -1.90799772626522E-05   1.17692135592586E-15   0.00000000000000E+00   0.00000000000000E+00
      0.00000000000000E+00   0.00000000000000E+00   0.00000000000000E+00   0.00000000000000E+00   0.00000000000000E+00
     -1.25792345261143E-15   0.00000000000000E+00   0.00000000000000E+00   0.00000000000000E+00   0.00000000000000E+00
     -3.42578190699586E-19   2.66937797808811E-25  -3.42577923761788E-19  -2.49429870747971E-15   1.17000000000000E+00
      1.17000000000000E+00   0.00000000000000E+00   0.00000000000000E+00   1.90799772626526E-05   4.17065951701851E-33
      1.90799772626526E-05   2.57530080416528E-15
      7.00000000000000E-01
      0.00000000000000E+00   0.00000000000000E+00   0.00000000000000E+00   0.00000000000000E+00  -2.31749203243591E-05
     -2.67372594594005E-25  -2.31749203243591E-05   1.17387986085290E-15   0.00000000000000E+00   0.00000000000000E+00
      0.00000000000000E+00   0.00000000000000E+00   0.00000000000000E+00   0.00000000000000E+00   0.00000000000000E+00
     -1.29838986558343E-15   0.00000000000000E+00   0.00000000000000E+00   0.00000000000000E+00   0.00000000000000E+00
      4.21949735875339E-18   2.67372595399201E-25   4.21949762612599E-18  -2.53935408410273E-15   1.26000000000000E+00
      1.26000000000000E+00   0.00000000000000E+00   0.00000000000000E+00   2.31749203243549E-05  -8.05195381440190E-34
      2.31749203243549E-05   2.66386408883326E-15
      7.50000000000000E-01
      0.00000000000000E+00   0.00000000000000E+00   0.00000000000000E+00   0.00000000000000E+00  -2.75922908943484E-05
     -2.76585354239202E-25  -2.75922908943484E-05   1.17093270820478E-15   0.00000000000000E+00   0.00000000000000E+00
      0.00000000000000E+00   0.00000000000000E+00   0.00000000000000E+00   0.00000000000000E+00   0.00000000000000E+00
     -1.33813988773890E-15   0.00000000000000E+00   0.00000000000000E+00   0.00000000000000E+00   0.00000000000000E+00
     -2.24151055251406E-19   2.76585356330200E-25  -2.24150778666050E-19  -2.58390905312726E-15   1.35000000000000E+00
      1.35000000000000E+00   0.00000000000000E+00   0.00000000000000E+00   2.75922908943486E-05  -2.09099752738585E-33
      2.75922908943486E-05   2.75111623266138E-15
      8.00000000000000E-01
      0.00000000000000E+00   0.00000000000000E+00   0.00000000000000E+00   0.00000000000000E+00  -3.23131703037307E-05
     -2.68153232940931E-25  -3.23131703037307E-05   1.16806394362712E-15   0.00000000000000E+00   0.00000000000000E+00
      0.00000000000000E+00   0.00000000000000E+00   0.00000000000000E+00   0.00000000000000E+00   0.00000000000000E+00
     -1.37747402894251E-15   0.00000000000000E+00   0.00000000000000E+00   0.00000000000000E+00   0.00000000000000E+00
     -1.22521018668418E-19   2.68153229398757E-25  -1.22520750515189E-19  -2.62800397682591E-15   1.44000000000000E+00
      1.44000000000000E+00   0.00000000000000E+00   0.00000000000000E+00   3.23131703037308E-05   3.54217373879329E-33
      3.23131703037308E-05   2.83741406214130E-15
      8.50000000000000E-01
      0.00000000000000E+00   0.00000000000000E+00   0.00000000000000E+00   0.00000000000000E+00  -3.73100132218261E-05
     -2.60154345981439E-25  -3.73100132218261E-05   1.16526508117425E-15   0.00000000000000E+00   0.00000000000000E+00
      0.00000000000000E+00   0.00000000000000E+00   0.00000000000000E+00   0.00000000000000E+00   0.00000000000000E+00
     -1.41652497269399E-15   0.00000000000000E+00   0.00000000000000E+00   0.00000000000000E+00   0.00000000000000E+00
     -1.44416506604152E-19   2.60154345341460E-25  -1.44416246449806E-19  -2.67166688725243E-15   1.53000000000000E+00
      1.53000000000000E+00   0.00000000000000E+00   0.00000000000000E+00   3.73100132218262E-05   6.39979561564530E-34
      3.73100132218262E-05   2.92292677877217E-15
      9.00000000000000E-01
      0.00000000000000E+00   0.00000000000000E+00   0.00000000000000E+00   0.00000000000000E+00  -4.25482627017501E-05
     -2.82673277093486E-25  -4.25482627017501E-05   1.16253229626107E-15   0.00000000000000E+00   0.00000000000000E+00
      0.00000000000000E+00   0.00000000000000E+00   0.00000000000000E+00   0.00000000000000E+00   0.00000000000000E+00
     -1.45533722896136E-15   0.00000000000000E+00   0.00000000000000E+00   0.00000000000000E+00   0.00000000000000E+00
     -3.89376146994980E-19   2.82673277331973E-25  -3.89375864321702E-19  -2.71491105445594E-15   1.62000000000000E+00
      1.62000000000000E+00   0.00000000000000E+00   0.00000000000000E+00   4.25482627017505E-05  -2.38486868317689E-34
      4.25482627017505E-05   3.00771598715622E-15
      9.50000000000000E-01
      0.00000000000000E+00   0.00000000000000E+00   0.00000000000000E+00   0.00000000000000E+00  -4.79919843718264E-05
     -2.62745445794816E-25  -4.79919843718264E-05   1.15986353890372E-15   0.00000000000000E+00   0.00000000000000E+00
      0.00000000000000E+00   0.00000000000000E+00   0.00000000000000E+00   0.00000000000000E+00   0.00000000000000E+00
     -1.49391430379204E-15   0.00000000000000E+00   0.00000000000000E+00   0.00000000000000E+00   0.00000000000000E+00
     -1.16806585631465E-19   2.62745446099928E-25  -1.16806322886019E-19  -2.75773765589054E-15   1.71000000000000E+00
      1.71000000000000E+00   0.00000000000000E+00   0.00000000000000E+00   4.79919843718265E-05  -3.05111891837810E-34
      4.79919843718265E-05   3.09178842077886E-15
      1.00000000000000E+00
      0.00000000000000E+00   0.00000000000000E+00   0.00000000000000E+00   0.00000000000000E+00  -5.36047800154767E-05
     -2.67807389620822E-25  -5.36047800154767E-05   1.15725770610004E-15   0.00000000000000E+00   0.00000000000000E+00
      0.00000000000000E+00   0.00000000000000E+00   0.00000000000000E+00   0.00000000000000E+00   0.00000000000000E+00
     -1.53223579468655E-15   0.00000000000000E+00   0.00000000000000E+00   0.00000000000000E+00   0.00000000000000E+00
      2.65461128031655E-19   2.67807389751690E-25   2.65461395839045E-19  -2.80013700093424E-15   1.80000000000000E+00
      1.80000000000000E+00   0.00000000000000E+00   0.00000000000000E+00   5.36047800154764E-05  -1.30868026673466E-34
      5.36047800154764E-05   3.17511508952075E-15
}
