DF-ISE text

Info {
  version   = 1.0
  type      = xyplot
  datasets  = [
    "time"
    "source OuterVoltage" "source InnerVoltage" "source QuasiFermiPotential" "source DisplacementCurrent" "source eCurrent"
    "source hCurrent" "source TotalCurrent" "source Charge" "gate OuterVoltage" "gate InnerVoltage"
    "gate QuasiFermiPotential" "gate DisplacementCurrent" "gate eCurrent" "gate hCurrent" "gate TotalCurrent"
    "gate Charge" "substrate OuterVoltage" "substrate InnerVoltage" "substrate QuasiFermiPotential" "substrate DisplacementCurrent"
    "substrate eCurrent" "substrate hCurrent" "substrate TotalCurrent" "substrate Charge" "drain OuterVoltage"
    "drain InnerVoltage" "drain QuasiFermiPotential" "drain DisplacementCurrent" "drain eCurrent" "drain hCurrent"
    "drain TotalCurrent" "drain Charge" ]
  functions = [
    Time
    OuterVoltage InnerVoltage QuasiFermiPotential DisplacementCurrent eCurrent
    hCurrent TotalCurrent Charge OuterVoltage InnerVoltage
    QuasiFermiPotential DisplacementCurrent eCurrent hCurrent TotalCurrent
    Charge OuterVoltage InnerVoltage QuasiFermiPotential DisplacementCurrent
    eCurrent hCurrent TotalCurrent Charge OuterVoltage
    InnerVoltage QuasiFermiPotential DisplacementCurrent eCurrent hCurrent
    TotalCurrent Charge ]
}

Data {
      5.00000000000000E-02
      0.00000000000000E+00   0.00000000000000E+00   0.00000000000000E+00   0.00000000000000E+00  -8.48432623940630E-05
     -2.39316599927932E-42  -8.48432623940630E-05   1.70199163362649E-15   9.00000000000000E-01   9.00000000000000E-01
      0.00000000000000E+00   0.00000000000000E+00   0.00000000000000E+00   0.00000000000000E+00   0.00000000000000E+00
      9.02601820944243E-16  -1.80000000000000E+00  -1.80000000000000E+00   0.00000000000000E+00   0.00000000000000E+00
      8.18743191124992E-16   2.24346219894147E-42   8.18743191124992E-16  -4.38124170754155E-15   9.00000000000000E-02
      9.00000000000000E-02   0.00000000000000E+00   0.00000000000000E+00   8.48432623932442E-05   1.49703800337845E-43
      8.48432623932442E-05   1.77664825297081E-15
      1.00000000000000E-01
      0.00000000000000E+00   0.00000000000000E+00   0.00000000000000E+00   0.00000000000000E+00  -1.37832903832135E-04
     -1.02954126000696E-42  -1.37832903832135E-04   1.69657219816668E-15   9.00000000000000E-01   9.00000000000000E-01
      0.00000000000000E+00   0.00000000000000E+00   0.00000000000000E+00   0.00000000000000E+00   0.00000000000000E+00
      8.01987282795329E-16  -1.80000000000000E+00  -1.80000000000000E+00   0.00000000000000E+00   0.00000000000000E+00
      1.15457564963625E-17   1.04587554920465E-42   1.15457564963625E-17  -4.34918048328582E-15   1.80000000000000E-01
      1.80000000000000E-01   0.00000000000000E+00   0.00000000000000E+00   1.37832903832123E-04  -1.63342891976895E-44
      1.37832903832123E-04   1.85062100232381E-15
      1.50000000000000E-01
      0.00000000000000E+00   0.00000000000000E+00   0.00000000000000E+00   0.00000000000000E+00  -1.66753820785887E-04
     -2.58274414572383E-42  -1.66753820785887E-04   1.69045102201597E-15   9.00000000000000E-01   9.00000000000000E-01
      0.00000000000000E+00   0.00000000000000E+00   0.00000000000000E+00   0.00000000000000E+00   0.00000000000000E+00
      7.08511507629886E-16  -1.80000000000000E+00  -1.80000000000000E+00   0.00000000000000E+00   0.00000000000000E+00
     -8.07708690605597E-18   2.58321911875113E-42  -8.07708690605597E-18  -4.32715937075219E-15   2.70000000000000E-01
      2.70000000000000E-01   0.00000000000000E+00   0.00000000000000E+00   1.66753820785895E-04  -4.74973027297588E-46
      1.66753820785895E-04   1.92819684110634E-15
      2.00000000000000E-01
      0.00000000000000E+00   0.00000000000000E+00   0.00000000000000E+00   0.00000000000000E+00  -1.83195088985415E-04
     -1.96448087224041E-42  -1.83195088985415E-04   1.68448133040336E-15   9.00000000000000E-01   9.00000000000000E-01
      0.00000000000000E+00   0.00000000000000E+00   0.00000000000000E+00   0.00000000000000E+00   0.00000000000000E+00
      6.24002634063928E-16  -1.80000000000000E+00  -1.80000000000000E+00   0.00000000000000E+00   0.00000000000000E+00
      4.10133462984532E-18   1.96384811423394E-42   4.10133462984532E-18  -4.31762591332242E-15   3.60000000000000E-01
      3.60000000000000E-01   0.00000000000000E+00   0.00000000000000E+00   1.83195088985411E-04   6.32758006471713E-46
      1.83195088985411E-04   2.00914194885514E-15
      2.50000000000000E-01
      0.00000000000000E+00   0.00000000000000E+00   0.00000000000000E+00   0.00000000000000E+00  -1.94758814163454E-04
     -2.23749723329705E-42  -1.94758814163454E-04   1.67888765336311E-15   9.00000000000000E-01   9.00000000000000E-01
      0.00000000000000E+00   0.00000000000000E+00   0.00000000000000E+00   0.00000000000000E+00   0.00000000000000E+00
      5.48355207209512E-16  -1.80000000000000E+00  -1.80000000000000E+00   0.00000000000000E+00   0.00000000000000E+00
      3.38753985022213E-18   2.23742068499724E-42   3.38753985022213E-18  -4.32127832636655E-15   4.50000000000000E-01
      4.50000000000000E-01   0.00000000000000E+00   0.00000000000000E+00   1.94758814163451E-04   7.65482998111022E-47
      1.94758814163451E-04   2.09403546579392E-15
      3.00000000000000E-01
      0.00000000000000E+00   0.00000000000000E+00   0.00000000000000E+00   0.00000000000000E+00  -2.04494059220512E-04
     -2.32389496650530E-42  -2.04494059220512E-04   1.67356377748090E-15   9.00000000000000E-01   9.00000000000000E-01
      0.00000000000000E+00   0.00000000000000E+00   0.00000000000000E+00   0.00000000000000E+00   0.00000000000000E+00
      4.80535813999374E-16  -1.80000000000000E+00  -1.80000000000000E+00   0.00000000000000E+00   0.00000000000000E+00
     -1.03218274852684E-18   2.32389279124047E-42  -1.03218274852684E-18  -4.33831975172730E-15   5.40000000000000E-01
      5.40000000000000E-01   0.00000000000000E+00   0.00000000000000E+00   2.04494059220513E-04   2.17526482856596E-48
      2.04494059220513E-04   2.18422016024703E-15
      3.50000000000000E-01
      0.00000000000000E+00   0.00000000000000E+00   0.00000000000000E+00   0.00000000000000E+00  -2.13459058841994E-04
     -1.97524231554472E-42  -2.13459058841994E-04   1.66842355400722E-15   9.00000000000000E-01   9.00000000000000E-01
      0.00000000000000E+00   0.00000000000000E+00   0.00000000000000E+00   0.00000000000000E+00   0.00000000000000E+00
      4.18628461585933E-16  -1.80000000000000E+00  -1.80000000000000E+00   0.00000000000000E+00   0.00000000000000E+00
     -8.67670544019167E-18   1.97524142721665E-42  -8.67670544019167E-18  -4.36549115241516E-15   6.30000000000000E-01
      6.30000000000000E-01   0.00000000000000E+00   0.00000000000000E+00   2.13459058842003E-04   8.88328070071860E-49
      2.13459058842003E-04   2.27843913682201E-15
      4.00000000000000E-01
      0.00000000000000E+00   0.00000000000000E+00   0.00000000000000E+00   0.00000000000000E+00  -2.21857761410759E-04
     -1.72962384831265E-42  -2.21857761410759E-04   1.66346386984628E-15   9.00000000000000E-01   9.00000000000000E-01
      0.00000000000000E+00   0.00000000000000E+00   0.00000000000000E+00   0.00000000000000E+00   0.00000000000000E+00
      3.60333938319400E-16  -1.80000000000000E+00  -1.80000000000000E+00   0.00000000000000E+00   0.00000000000000E+00
      3.04484223207067E-18   1.72962358088757E-42   3.04484223207067E-18  -4.39714959774664E-15   7.20000000000000E-01
      7.20000000000000E-01   0.00000000000000E+00   0.00000000000000E+00   2.21857761410756E-04   2.67425080208417E-49
      2.21857761410756E-04   2.37335178958096E-15
      4.50000000000000E-01
      0.00000000000000E+00   0.00000000000000E+00   0.00000000000000E+00   0.00000000000000E+00  -2.29790250260116E-04
     -2.72315511296355E-42  -2.29790250260116E-04   1.65868927938460E-15   9.00000000000000E-01   9.00000000000000E-01
      0.00000000000000E+00   0.00000000000000E+00   0.00000000000000E+00   0.00000000000000E+00   0.00000000000000E+00
      3.04319390427578E-16  -1.80000000000000E+00  -1.80000000000000E+00   0.00000000000000E+00   0.00000000000000E+00
      8.07750190548460E-18   2.72315507834345E-42   8.07750190548460E-18  -4.42982367364746E-15   8.10000000000000E-01
      8.10000000000000E-01   0.00000000000000E+00   0.00000000000000E+00   2.29790250260108E-04   3.46200940423787E-50
      2.29790250260108E-04   2.46681500383529E-15
      5.00000000000000E-01
      0.00000000000000E+00   0.00000000000000E+00   0.00000000000000E+00   0.00000000000000E+00  -2.37332769003325E-04
     -1.57696855202486E-42  -2.37332769003325E-04   1.65408560950532E-15   9.00000000000000E-01   9.00000000000000E-01
      0.00000000000000E+00   0.00000000000000E+00   0.00000000000000E+00   0.00000000000000E+00   0.00000000000000E+00
      2.50107457061355E-16  -1.80000000000000E+00  -1.80000000000000E+00   0.00000000000000E+00   0.00000000000000E+00
      1.00307134936293E-15   1.57696854802850E-42   1.00307134936293E-15  -4.46231412178158E-15   9.00000000000000E-01
      9.00000000000000E-01   0.00000000000000E+00   0.00000000000000E+00   2.37332769002322E-04   3.99636704941057E-51
      2.37332769002322E-04   2.55812105521491E-15
      5.50000000000000E-01
      0.00000000000000E+00   0.00000000000000E+00   0.00000000000000E+00   0.00000000000000E+00  -2.44583884405377E-04
     -2.19097554889644E-42  -2.44583884405377E-04   1.64961757129935E-15   9.00000000000000E-01   9.00000000000000E-01
      0.00000000000000E+00   0.00000000000000E+00   0.00000000000000E+00   0.00000000000000E+00   0.00000000000000E+00
      1.97473987054972E-16  -1.80000000000000E+00  -1.80000000000000E+00   0.00000000000000E+00   0.00000000000000E+00
      9.32048782005054E-16   2.19097554781958E-42   9.32048782005054E-16  -4.49431203214629E-15   9.90000000000000E-01
      9.90000000000000E-01   0.00000000000000E+00   0.00000000000000E+00   2.44583884404445E-04   1.07686090276820E-51
      2.44583884404445E-04   2.64722047379197E-15
      6.00000000000000E-01
      0.00000000000000E+00   0.00000000000000E+00   0.00000000000000E+00   0.00000000000000E+00  -2.51687130338412E-04
     -2.28833965934902E-42  -2.51687130338412E-04   1.64524920250095E-15   9.00000000000000E-01   9.00000000000000E-01
      0.00000000000000E+00   0.00000000000000E+00   0.00000000000000E+00   0.00000000000000E+00   0.00000000000000E+00
      1.46272122888745E-16  -1.80000000000000E+00  -1.80000000000000E+00   0.00000000000000E+00   0.00000000000000E+00
      6.90924260103539E-17   2.28833965921602E-42   6.90924260103539E-17  -4.52578393705843E-15   1.08000000000000E+00
      1.08000000000000E+00   0.00000000000000E+00   0.00000000000000E+00   2.51687130338343E-04   1.32993054143959E-52
      2.51687130338343E-04   2.73426261166874E-15
      6.50000000000000E-01
      0.00000000000000E+00   0.00000000000000E+00   0.00000000000000E+00   0.00000000000000E+00  -2.58722929585022E-04
     -9.23759078331927E-43  -2.58722929585022E-04   1.64095841203882E-15   9.00000000000000E-01   9.00000000000000E-01
      0.00000000000000E+00   0.00000000000000E+00   0.00000000000000E+00   0.00000000000000E+00   0.00000000000000E+00
      9.63642850427636E-17  -1.80000000000000E+00  -1.80000000000000E+00   0.00000000000000E+00   0.00000000000000E+00
      1.32092368871745E-17   9.23759078331892E-43   1.32092368871745E-17  -4.55679539738052E-15   1.17000000000000E+00
      1.17000000000000E+00   0.00000000000000E+00   0.00000000000000E+00   2.58722929585009E-04   3.48157694649768E-56
      2.58722929585009E-04   2.81947270029894E-15
      7.00000000000000E-01
      0.00000000000000E+00   0.00000000000000E+00   0.00000000000000E+00   0.00000000000000E+00  -2.65725064403047E-04
     -1.61855251226689E-42  -2.65725064403047E-04   1.63673467754034E-15   9.00000000000000E-01   9.00000000000000E-01
      0.00000000000000E+00   0.00000000000000E+00   0.00000000000000E+00   0.00000000000000E+00   0.00000000000000E+00
      4.75727711248376E-17  -1.80000000000000E+00  -1.80000000000000E+00   0.00000000000000E+00   0.00000000000000E+00
     -3.25178048279005E-18   1.61855251226509E-42  -3.25178048279005E-18  -4.58738516936424E-15   1.26000000000000E+00
      1.26000000000000E+00   0.00000000000000E+00   0.00000000000000E+00   2.65725064403050E-04   1.79678263110247E-54
      2.65725064403050E-04   2.90307772069907E-15
      7.50000000000000E-01
      0.00000000000000E+00   0.00000000000000E+00   0.00000000000000E+00   0.00000000000000E+00  -2.72714673081755E-04
     -1.19137225183810E-42  -2.72714673081755E-04   1.63257242147113E-15   9.00000000000000E-01   9.00000000000000E-01
      0.00000000000000E+00   0.00000000000000E+00   0.00000000000000E+00   0.00000000000000E+00   0.00000000000000E+00
     -3.12198306381633E-19  -1.80000000000000E+00  -1.80000000000000E+00   0.00000000000000E+00   0.00000000000000E+00
      9.68979090566131E-19   1.19137225183749E-42   9.68979090566131E-19  -4.61758311253775E-15   1.35000000000000E+00
      1.35000000000000E+00   0.00000000000000E+00   0.00000000000000E+00   2.72714673081754E-04   6.08635876682230E-55
      2.72714673081754E-04   2.98532288937300E-15
      8.00000000000000E-01
      0.00000000000000E+00   0.00000000000000E+00   0.00000000000000E+00   0.00000000000000E+00  -2.79692310764251E-04
     -1.26266434075663E-42  -2.79692310764251E-04   1.62846958279582E-15   9.00000000000000E-01   9.00000000000000E-01
      0.00000000000000E+00   0.00000000000000E+00   0.00000000000000E+00   0.00000000000000E+00   0.00000000000000E+00
     -4.74254100438201E-17  -1.80000000000000E+00  -1.80000000000000E+00   0.00000000000000E+00   0.00000000000000E+00
      3.89012950638468E-18   1.26266434075661E-42   3.89012950638468E-18  -4.64744827459272E-15   1.44000000000000E+00
      1.44000000000000E+00   0.00000000000000E+00   0.00000000000000E+00   2.79692310764247E-04   2.89491665436592E-56
      2.79692310764247E-04   3.06640410184072E-15
      8.50000000000000E-01
      0.00000000000000E+00   0.00000000000000E+00   0.00000000000000E+00   0.00000000000000E+00  -2.86649950111130E-04
     -2.62500473877718E-42  -2.86649950111130E-04   1.62442873149146E-15   9.00000000000000E-01   9.00000000000000E-01
      0.00000000000000E+00   0.00000000000000E+00   0.00000000000000E+00   0.00000000000000E+00   0.00000000000000E+00
     -9.37592274925325E-17  -1.80000000000000E+00  -1.80000000000000E+00   0.00000000000000E+00   0.00000000000000E+00
     -2.19345321396606E-18   2.62500473877718E-42  -2.19345321396606E-18  -4.67702243484769E-15   1.53000000000000E+00
      1.53000000000000E+00   0.00000000000000E+00   0.00000000000000E+00   2.86649950111132E-04   3.20927144157772E-57
      2.86649950111132E-04   3.14635293084876E-15
      9.00000000000000E-01
      0.00000000000000E+00   0.00000000000000E+00   0.00000000000000E+00   0.00000000000000E+00  -2.93565990163598E-04
     -6.92264046175787E-43  -2.93565990163598E-04   1.62045721242043E-15   9.00000000000000E-01   9.00000000000000E-01
      0.00000000000000E+00   0.00000000000000E+00   0.00000000000000E+00   0.00000000000000E+00   0.00000000000000E+00
     -1.39185270763506E-16  -1.80000000000000E+00  -1.80000000000000E+00   0.00000000000000E+00   0.00000000000000E+00
     -2.95710277878477E-18   6.92264046175787E-43  -2.95710277878477E-18  -4.70631984804168E-15   1.62000000000000E+00
      1.62000000000000E+00   0.00000000000000E+00   0.00000000000000E+00   2.93565990163601E-04   4.60961041246607E-59
      2.93565990163601E-04   3.22504790638475E-15
      9.50000000000000E-01
      0.00000000000000E+00   0.00000000000000E+00   0.00000000000000E+00   0.00000000000000E+00  -3.00356784169431E-04
     -1.62285192533516E-42  -3.00356784169431E-04   1.61657023048307E-15   9.00000000000000E-01   9.00000000000000E-01
      0.00000000000000E+00   0.00000000000000E+00   0.00000000000000E+00   0.00000000000000E+00   0.00000000000000E+00
     -1.83481251936975E-16  -1.80000000000000E+00  -1.80000000000000E+00   0.00000000000000E+00   0.00000000000000E+00
      9.57614362629095E-19   1.62285192533516E-42   9.57614362629095E-19  -4.73540970683238E-15   1.71000000000000E+00
      1.71000000000000E+00   0.00000000000000E+00   0.00000000000000E+00   3.00356784169430E-04  -1.88365994023356E-59
      3.00356784169430E-04   3.30232072828628E-15
      1.00000000000000E+00
      0.00000000000000E+00   0.00000000000000E+00   0.00000000000000E+00   0.00000000000000E+00  -3.07024668405503E-04
     -2.39960642206735E-42  -3.07024668405503E-04   1.61277433224098E-15   9.00000000000000E-01   9.00000000000000E-01
      0.00000000000000E+00   0.00000000000000E+00   0.00000000000000E+00   0.00000000000000E+00   0.00000000000000E+00
     -2.26493179283817E-16  -1.80000000000000E+00  -1.80000000000000E+00   0.00000000000000E+00   0.00000000000000E+00
      3.43608191819130E-18   2.39960642206735E-42   3.43608191819130E-18  -4.76427297226500E-15   1.80000000000000E+00
      1.80000000000000E+00   0.00000000000000E+00   0.00000000000000E+00   3.07024668405500E-04   1.47580865550487E-59
      3.07024668405500E-04   3.37799181930783E-15
}
